/*--------------------------------*- C++ -*----------------------------------*\
| =========                 |                                                 |
| \\      /  F ield         | OpenFOAM: The Open Source CFD Toolbox           |
|  \\    /   O peration     | Version:  2.2.0                                 |
|   \\  /    A nd           | Web:      www.OpenFOAM.org                      |
|    \\/     M anipulation  |                                                 |
\*---------------------------------------------------------------------------*/
FoamFile
{
    version     2.0;
    format      ascii;
    class       volScalarField;
    location    "1000";
    object      alphat;
}
// * * * * * * * * * * * * * * * * * * * * * * * * * * * * * * * * * * * * * //

dimensions      [1 -1 -1 0 0 0 0];

internalField   nonuniform List<scalar> 
7600
(
0.000245911
0.000312146
0.000366598
0.000410546
0.00044546
0.000472393
0.000492104
0.000505278
0.000512654
0.000515141
0.000513965
0.000510931
0.000510263
0.000515139
0.000528698
0.000553543
0.000588697
0.000627637
0.000660942
0.000686591
0.000723138
0.000792474
0.000870173
0.000923254
0.000947275
0.000944506
0.000920224
0.000881161
0.00083347
0.000786381
0.000740363
0.000695048
0.000650349
0.000606148
0.000562316
0.000518822
0.000475884
0.000433646
0.000388411
0.000324531
0.000327755
0.0012062
0.00210126
0.00287004
0.00348145
0.00393496
0.00424545
0.00443469
0.0045283
0.00455581
0.00455231
0.00456066
0.00462182
0.00477506
0.00505713
0.00545032
0.00588153
0.00625452
0.00651756
0.00680443
0.00744345
0.00827397
0.00881264
0.00907984
0.00902496
0.00866916
0.00808333
0.00737107
0.00662912
0.0058494
0.00512834
0.00449143
0.00393759
0.00345797
0.00304407
0.00269101
0.00239526
0.00212738
0.00170873
0.000408469
0.000389332
0.00169238
0.0031415
0.004524
0.00577891
0.00686236
0.00774712
0.00842527
0.00891033
0.00923898
0.00947305
0.00970011
0.0100224
0.0104928
0.0111329
0.0118733
0.0125695
0.013066
0.0133308
0.0137236
0.0148151
0.0161952
0.017121
0.017561
0.0174269
0.0167512
0.0156496
0.0142978
0.0128698
0.0114211
0.0100694
0.00884926
0.00776339
0.00680372
0.0059616
0.00522914
0.00458322
0.00391771
0.00285324
0.000478032
0.000441512
0.0021397
0.00405469
0.00589416
0.00760602
0.00915305
0.0105038
0.0116381
0.0125559
0.0132861
0.0138926
0.0144763
0.0151559
0.015958
0.0168691
0.0178003
0.0186033
0.0191148
0.0193375
0.0197864
0.0210371
0.0225266
0.0234966
0.0238798
0.0235926
0.0226828
0.0212825
0.019583
0.0177779
0.0159544
0.014231
0.0126413
0.0111909
0.00987718
0.00869602
0.00763517
0.00663915
0.00551226
0.00373235
0.000535126
0.000489001
0.00258879
0.00497639
0.00725638
0.0093767
0.0113112
0.0130389
0.0145467
0.0158387
0.0169453
0.0179303
0.0188883
0.0199019
0.0209539
0.0220114
0.0230099
0.023831
0.0243119
0.0244861
0.0249442
0.0261086
0.0273711
0.0281013
0.0282444
0.027733
0.0266324
0.0250765
0.0232418
0.0213063
0.0193515
0.0174807
0.0157201
0.0140736
0.0125424
0.0111259
0.00980195
0.00847335
0.00686035
0.00438352
0.000582235
0.000533992
0.00304869
0.00593397
0.00867496
0.011212
0.0135246
0.0156006
0.0174382
0.0190526
0.0204828
0.021793
0.0230639
0.0243024
0.0254758
0.0265665
0.0275566
0.0283439
0.0287486
0.0288706
0.0292445
0.0301234
0.0309278
0.0312015
0.0309719
0.0301947
0.0289302
0.0273088
0.0254757
0.0235783
0.0216751
0.0198336
0.0180683
0.0163745
0.0147518
0.0131975
0.0116724
0.0100323
0.0079354
0.00484216
0.000621424
0.000577917
0.00353046
0.00694558
0.0101777
0.0131562
0.0158621
0.0182882
0.0204406
0.0223435
0.0240424
0.0255959
0.0270578
0.0283786
0.0295447
0.0305904
0.0315293
0.032229
0.0325222
0.0325425
0.0327005
0.0331327
0.0333135
0.0329817
0.0322736
0.0312361
0.0298555
0.0282443
0.0265061
0.0247545
0.0230352
0.0213523
0.0197127
0.0180961
0.0164922
0.014887
0.0132151
0.0112858
0.00873289
0.00514382
0.0006543
0.000621784
0.00404682
0.00803194
0.0117897
0.0152379
0.0183565
0.0211402
0.0235979
0.0257569
0.02766
0.0293513
0.0308555
0.0321118
0.0331751
0.0341309
0.0349732
0.0355362
0.035671
0.035474
0.0352751
0.0351188
0.0345537
0.0335363
0.0323273
0.0310316
0.0296502
0.0281448
0.0265805
0.0250332
0.0235766
0.0221354
0.0207138
0.0192724
0.0177795
0.0161968
0.0144225
0.0122278
0.00926956
0.00532426
0.000682336
0.000666361
0.0046113
0.00921631
0.0135388
0.0174842
0.0210304
0.0241705
0.0269114
0.0292758
0.0312952
0.0329956
0.0343844
0.0354602
0.0363654
0.0371865
0.0378971
0.0382688
0.0381263
0.0375769
0.0368795
0.0360058
0.0346262
0.03294
0.0313173
0.0298633
0.0285488
0.0272934
0.0260068
0.0246935
0.0234775
0.0223258
0.0211676
0.0199659
0.018656
0.0171554
0.015314
0.012879
0.00958377
0.00541994
0.000707045
0.000712286
0.00523716
0.0105224
0.0154535
0.0199218
0.023901
0.0273795
0.0303574
0.0328465
0.0348648
0.0364292
0.0375563
0.0383712
0.0390729
0.0397597
0.0402651
0.0403113
0.0397563
0.0387176
0.0373887
0.0357044
0.0335417
0.0313448
0.0295221
0.0280964
0.0269621
0.0259984
0.0250814
0.0240964
0.0230593
0.0221582
0.0212164
0.0202589
0.019176
0.0178075
0.015932
0.0132886
0.00973466
0.0054685
0.000730071
0.00076017
0.00593426
0.0119697
0.017557
0.0225704
0.0269762
0.0307543
0.0338937
0.0363934
0.0382655
0.0395319
0.0402849
0.0408163
0.0413221
0.0417734
0.041922
0.0414942
0.0403955
0.0387455
0.0366894
0.0341968
0.0314479
0.0290605
0.0273341
0.0261354
0.0252799
0.0246258
0.0240554
0.0234415
0.0226646
0.0218191
0.0210353
0.020241
0.0193798
0.0181877
0.0163289
0.0135308
0.00979855
0.00550862
0.000753222
0.000810924
0.00669964
0.0135631
0.0198567
0.0254313
0.0302417
0.0342568
0.0374516
0.0398138
0.0413661
0.0422051
0.0425819
0.0428027
0.0429985
0.0430475
0.0426714
0.041634
0.039887
0.0375516
0.0347716
0.0316532
0.0287085
0.0265363
0.0251588
0.0242935
0.0237308
0.0233491
0.0230633
0.0227731
0.022341
0.0216395
0.02089
0.0200995
0.0193221
0.0183086
0.0165506
0.0136946
0.00986325
0.00557987
0.000778536
0.000867159
0.00748652
0.015242
0.0222845
0.0284181
0.0335865
0.0377521
0.0408857
0.0429853
0.0441183
0.0444771
0.0444068
0.0441948
0.0439078
0.0433758
0.0423322
0.0405937
0.0381582
0.0351725
0.031854
0.0285135
0.0258557
0.0242058
0.0232699
0.0227188
0.0223793
0.0221727
0.0220582
0.0219847
0.0218522
0.0214993
0.0207981
0.0200682
0.0191769
0.0182134
0.0166317
0.013868
0.010021
0.00572441
0.000808248
0.000923865
0.00833141
0.0170381
0.0248409
0.0315005
0.0369558
0.0411706
0.0441239
0.0458404
0.0464432
0.0462382
0.0456008
0.0447982
0.0438597
0.0426088
0.0408199
0.0383749
0.0353333
0.0319108
0.0284482
0.0254015
0.0233833
0.0223345
0.0217898
0.0214736
0.0212639
0.0211167
0.0210267
0.020994
0.0209892
0.0209185
0.0206193
0.019955
0.0192146
0.0181168
0.0166541
0.0141243
0.0103607
0.00599047
0.000845188
0.000978854
0.00921777
0.0188828
0.0274062
0.0345171
0.0401599
0.0443081
0.0469577
0.0481705
0.0481707
0.047315
0.0459958
0.0444732
0.0427742
0.0407529
0.0382492
0.0352265
0.0318266
0.0283521
0.0252195
0.0228513
0.0215593
0.0210205
0.0207791
0.0206394
0.0205058
0.0203437
0.0201601
0.0199842
0.0198512
0.0197664
0.0196717
0.0194276
0.0188638
0.0180734
0.0166867
0.0144934
0.0109363
0.00643682
0.00089189
0.00102847
0.0100777
0.0206108
0.0297341
0.0371619
0.0428559
0.04681
0.0490637
0.0497556
0.0491414
0.0476011
0.0455436
0.0432488
0.0407812
0.0380583
0.0350042
0.0316707
0.0282734
0.0251513
0.0226751
0.0210912
0.0204178
0.0202598
0.0202622
0.0203002
0.0202678
0.0201122
0.0198277
0.0194269
0.0189733
0.0185398
0.0181821
0.0179075
0.0176302
0.0171526
0.0162651
0.0145337
0.0114617
0.00699447
0.000958614
0.00106911
0.0108048
0.0219401
0.0314012
0.0389412
0.0445628
0.0483068
0.0502392
0.0504986
0.0493453
0.0471687
0.0444044
0.0413858
0.0382522
0.0350075
0.0316603
0.0283279
0.0252479
0.0227116
0.0209539
0.0200346
0.0198053
0.0199156
0.0201701
0.0204513
0.0206256
0.0205958
0.0203617
0.0198616
0.0191215
0.0182229
0.0172606
0.0163428
0.0155482
0.0148785
0.0141954
0.0131512
0.0111611
0.00721503
0.00104735
0.00107571
0.0110579
0.022391
0.0319581
0.039522
0.0451028
0.0487404
0.0504937
0.0504845
0.0489521
0.0462787
0.0429313
0.0393219
0.0356933
0.0321423
0.0287408
0.0256258
0.0229962
0.0210404
0.0198457
0.0193456
0.0193446
0.0195763
0.0200118
0.0205751
0.0211326
0.0215475
0.0216973
0.02147
0.0208
0.0197399
0.0183337
0.0166905
0.0149445
0.0132288
0.011638
0.0101583
0.00854037
0.00604479
0.00111485
0.0010639
0.0106621
0.0217991
0.0312822
0.0388169
0.0444009
0.0480599
0.0498304
0.0497968
0.0481494
0.0452309
0.041518
0.0375029
0.033548
0.0298475
0.0265141
0.0236654
0.0214276
0.0198794
0.0189963
0.018655
0.0186863
0.0189184
0.0194609
0.0202841
0.021263
0.0222469
0.0230665
0.02355
0.02355
0.0229725
0.0217926
0.0200615
0.0178709
0.0153406
0.0126211
0.00986084
0.0071682
0.00452184
0.0010526
0.00102886
0.00994095
0.0204749
0.0295957
0.036961
0.0425318
0.0463065
0.0482879
0.0485071
0.0470768
0.0442538
0.0404678
0.0362534
0.0320925
0.0282961
0.0250196
0.0223516
0.0203431
0.0189872
0.018206
0.0179107
0.0179889
0.0181674
0.0186248
0.0194365
0.0205723
0.0219626
0.0234656
0.0248575
0.0258707
0.026264
0.0258833
0.0246793
0.0226852
0.0199846
0.016689
0.0129335
0.00889496
0.00483344
0.00132976
0.000980075
0.00908469
0.0187948
0.0273792
0.0344757
0.0400093
0.0439478
0.0462614
0.0469306
0.0459871
0.0435767
0.040022
0.0358235
0.0315429
0.0276296
0.0243093
0.0216755
0.0197287
0.0184095
0.0176484
0.0175667
0.0184115
0.0190469
0.019391
0.0197903
0.0203733
0.0213515
0.0228647
0.0248002
0.0267807
0.0283198
0.0290121
0.0286406
0.0271552
0.0246096
0.021102
0.0167433
0.0116698
0.00619815
0.00156344
0.000928374
0.00829151
0.0171793
0.0251991
0.0319975
0.0374744
0.0415728
0.0442378
0.0454142
0.0450712
0.0432542
0.0401554
0.0361667
0.0318437
0.0278502
0.0243539
0.0216177
0.0196157
0.0182567
0.0174716
0.0175278
0.0191462
0.0206112
0.0216996
0.0226352
0.0230628
0.0230074
0.0231925
0.0243819
0.0265571
0.0289769
0.0307689
0.0313691
0.0305551
0.0283276
0.0247842
0.0200407
0.0141922
0.0074912
0.00175786
0.000876799
0.00760438
0.0157382
0.0232181
0.0297194
0.0351269
0.0393642
0.0423575
0.0440281
0.0443043
0.0431572
0.0406589
0.0370518
0.032851
0.0287281
0.0250676
0.0221512
0.0200121
0.0185578
0.0177115
0.0176555
0.0185814
0.0200341
0.0217591
0.0236541
0.025229
0.025834
0.025333
0.0249024
0.0261085
0.0287123
0.0313664
0.0329337
0.032882
0.0311057
0.0276844
0.0227492
0.01638
0.0087236
0.00192514
0.000831129
0.00694784
0.0144121
0.0214103
0.0276351
0.0329631
0.0373045
0.0405722
0.0426731
0.0435125
0.0430184
0.0411888
0.0381668
0.0343332
0.0302599
0.0264827
0.0233589
0.0210089
0.0193822
0.0184045
0.0181477
0.0186008
0.0197595
0.0215515
0.0236973
0.0256617
0.026715
0.0264284
0.0254735
0.025643
0.0279076
0.0311508
0.0336323
0.034403
0.0331823
0.0300044
0.025009
0.0182766
0.00986926
0.00208029
0.000788648
0.00639336
0.0132645
0.0198191
0.0257733
0.0310011
0.0354054
0.0388915
0.0413593
0.0427042
0.0428319
0.0416939
0.0393507
0.0360535
0.0322519
0.0284935
0.0252123
0.0226316
0.0207807
0.019622
0.0192069
0.0195078
0.0205096
0.0222119
0.0243166
0.0262647
0.0273143
0.0269499
0.02559
0.0249895
0.026768
0.0303135
0.0336627
0.0353298
0.0347657
0.0319432
0.0269949
0.0200024
0.0109664
0.00223176
0.000748921
0.00593946
0.0122935
0.018441
0.0241308
0.0292416
0.0336738
0.0373296
0.0401066
0.0418974
0.0425987
0.0421351
0.0405079
0.0378615
0.0345207
0.0309632
0.0276484
0.0248866
0.0228073
0.0214466
0.0208983
0.0211265
0.0220347
0.023599
0.0254982
0.0271663
0.0278863
0.0271812
0.0254365
0.024321
0.0256878
0.0293309
0.0332873
0.0358034
0.0360013
0.0336518
0.0288499
0.021672
0.0120664
0.00238512
0.000712058
0.00557559
0.0114854
0.0172635
0.0226982
0.0276789
0.0321094
0.0358927
0.0389278
0.0411095
0.0423326
0.0425081
0.0415974
0.0396645
0.036922
0.0337435
0.0305581
0.0277238
0.0254627
0.0239045
0.0232115
0.0233388
0.024128
0.0254363
0.0269358
0.0280701
0.0281892
0.0269411
0.0248246
0.0234674
0.0246636
0.0283941
0.032817
0.0360437
0.0369881
0.03523
0.0306769
0.023378
0.0132405
0.00254419
0.000678315
0.00529078
0.0108256
0.0162739
0.0214676
0.0263118
0.0307177
0.0345937
0.0378437
0.0403671
0.0420614
0.0428318
0.0426135
0.0414116
0.0393457
0.0366812
0.0337791
0.0310003
0.0286299
0.0268821
0.0259893
0.025908
0.0264511
0.0273109
0.0281795
0.0285389
0.0278612
0.0260042
0.0236651
0.0224172
0.0237522
0.0276164
0.0323951
0.0362408
0.0378945
0.0367286
0.0325217
0.0251809
0.0144964
0.00271097
0.000648026
0.00507648
0.0103025
0.0154645
0.0204375
0.0251462
0.0295131
0.0334548
0.0368823
0.0397014
0.0418138
0.0431219
0.0435438
0.0430416
0.0416611
0.0395697
0.0370447
0.0344124
0.0319803
0.0300149
0.0288045
0.0283251
0.0283523
0.0285814
0.0286242
0.028062
0.0265672
0.0242907
0.0221256
0.0214329
0.0231885
0.0272029
0.0321954
0.0365351
0.0388598
0.0383036
0.0344384
0.027048
0.0158677
0.00288907
0.000621598
0.00492769
0.00991076
0.0148333
0.0196126
0.0241937
0.0285128
0.0324957
0.0360604
0.0391182
0.0415736
0.0433271
0.0442845
0.0443774
0.0435965
0.0420289
0.0398682
0.0373832
0.0348645
0.0325871
0.0308787
0.0297653
0.0290242
0.0284398
0.0276257
0.0262473
0.0242648
0.0221421
0.0207846
0.0210663
0.0233723
0.0274477
0.032446
0.0370914
0.0399997
0.0400504
0.0365491
0.0290912
0.0172814
0.00308155
0.000599511
0.00484361
0.00965073
0.0143838
0.0189985
0.02346
0.0277159
0.0316989
0.0353304
0.0385229
0.0411812
0.0432048
0.0444938
0.0449638
0.0445716
0.043347
0.0414117
0.0389677
0.0362588
0.0335273
0.031137
0.0292165
0.02761
0.0262026
0.0249004
0.0232988
0.0216625
0.0205713
0.0205825
0.0219594
0.0246967
0.0286333
0.0333783
0.0380809
0.0414253
0.0420417
0.0389126
0.031382
0.0188647
0.00328634
0.000582298
0.00482815
0.00952743
0.0141168
0.0185844
0.0229106
0.0270484
0.0309292
0.0344705
0.037583
0.0401741
0.04215
0.0434207
0.0439099
0.0435685
0.0423962
0.0404611
0.0379006
0.0348988
0.031654
0.0286059
0.0260635
0.0240056
0.0224438
0.0214102
0.0206901
0.0204199
0.0209313
0.0222989
0.0244406
0.0272865
0.0308522
0.035109
0.0396136
0.0432102
0.0443207
0.0415592
0.0339489
0.0206397
0.00350453
0.000570542
0.00488952
0.00953902
0.014003
0.0182923
0.0223932
0.0262525
0.0297904
0.0329186
0.0355551
0.0376289
0.0390762
0.039846
0.0399081
0.0392416
0.0378446
0.0357557
0.0330683
0.0299352
0.0265749
0.0235716
0.0213832
0.0200417
0.019535
0.0198075
0.0206493
0.0219675
0.0237423
0.0258534
0.0282124
0.0308393
0.0338828
0.0375289
0.0416573
0.0453422
0.0468765
0.044485
0.0368019
0.0226224
0.0037373
0.000566858
0.0049918
0.00961815
0.013906
0.017865
0.0214922
0.0247201
0.0274583
0.0296372
0.0312254
0.0322217
0.0326303
0.0324806
0.0318389
0.0307394
0.0292006
0.0272588
0.0250029
0.0226084
0.0203787
0.0188906
0.0184075
0.0188157
0.0199604
0.0216771
0.0237159
0.0258907
0.0281141
0.0303179
0.032498
0.0347423
0.0372518
0.0403074
0.0440103
0.0476931
0.0496188
0.0476356
0.0399245
0.0248219
0.0039863
0.000575852
0.00506163
0.00958118
0.0134322
0.0166819
0.0193562
0.0213811
0.0226921
0.0233306
0.0234171
0.0230961
0.0224695
0.0216671
0.0208442
0.0200376
0.0192429
0.0184655
0.0177632
0.0172849
0.0172996
0.0180553
0.019454
0.0213291
0.0235317
0.0259332
0.0283198
0.0305811
0.0326958
0.0346609
0.0365179
0.0383762
0.0404418
0.0430234
0.0463601
0.0500342
0.0523736
0.0508927
0.0432634
0.0272379
0.00425408
0.000591485
0.00500446
0.00905003
0.0118868
0.013742
0.0147797
0.0150905
0.0147435
0.01401
0.0132387
0.0126555
0.0123326
0.0123323
0.0126738
0.0132713
0.0140458
0.0149534
0.0160086
0.017305
0.0190206
0.0211281
0.0234053
0.0257849
0.0282088
0.0305882
0.0327729
0.0347695
0.0365816
0.0382303
0.0397713
0.0413154
0.0430578
0.0453058
0.0483804
0.0520866
0.0548969
0.0540653
0.046712
0.0298558
0.00454487
0.000609213
0.00459324
0.00728213
0.00823364
0.00818754
0.00767688
0.00708345
0.00662054
0.00643595
0.00674566
0.00753599
0.00875585
0.010307
0.0120057
0.0137678
0.0155373
0.0173002
0.0190926
0.0210073
0.0231868
0.0255316
0.027843
0.0301181
0.0323198
0.0343571
0.0362055
0.0378754
0.0393788
0.0407446
0.0420321
0.0433477
0.0448732
0.0469036
0.0498049
0.0535744
0.0568967
0.0568764
0.050076
0.0326284
0.00486753
0.000628684
0.00335997
0.00379873
0.00326457
0.00279136
0.00275619
0.00326175
0.00427172
0.00580816
0.00766316
0.00968189
0.0117903
0.0139007
0.0159274
0.0178491
0.0196757
0.0214391
0.0231964
0.0250369
0.0270765
0.0292118
0.031275
0.033263
0.0351204
0.0368179
0.0383604
0.0397523
0.0410074
0.0421576
0.0432628
0.0444245
0.0458103
0.0476963
0.0504649
0.0542675
0.0580506
0.0589171
0.0529655
0.0354258
0.00524963
0.000668252
0.00151008
0.00144279
0.00179705
0.00271602
0.00422712
0.00604774
0.00800778
0.0100667
0.0121244
0.014099
0.015965
0.0177325
0.019424
0.0210661
0.0226743
0.0242686
0.0258846
0.0275827
0.0294449
0.0313686
0.0332042
0.0349253
0.0365116
0.0379639
0.0392829
0.040474
0.0415538
0.0425569
0.0435429
0.0446077
0.0459037
0.0476802
0.0503054
0.0540309
0.0580895
0.0597075
0.0547155
0.0379658
0.00582542
0.00102659
0.0018172
0.00316009
0.00504094
0.00723335
0.00902911
0.0105236
0.0118254
0.0130324
0.0142409
0.0155221
0.0169108
0.0184024
0.0199698
0.0215661
0.0231818
0.0248186
0.0264885
0.0282237
0.0300766
0.031937
0.033657
0.0352285
0.0366641
0.0379693
0.0391492
0.0402142
0.0411854
0.0421003
0.043018
0.0440277
0.0452654
0.0469465
0.0493974
0.0529149
0.056995
0.0591793
0.0551476
0.0401392
0.00656176
0.00337181
0.00331335
0.00326158
0.00321527
0.00317358
0.00313585
0.00310159
0.00307037
0.00304185
0.00301573
0.00299176
0.0029697
0.00294938
0.0029306
0.00291324
0.00289714
0.0028822
0.00286831
0.00285537
0.0028433
0.00283203
0.00282148
0.00281159
0.00280231
0.00279359
0.00278537
0.00277761
0.00277025
0.00276322
0.00275593
0.0290879
0.0201253
0.0165523
0.0145491
0.0132397
0.0123043
0.0115965
0.0110391
0.0105867
0.0102113
0.00989405
0.00962207
0.00938608
0.00917922
0.00899635
0.00883346
0.00868741
0.0085557
0.00843629
0.00832749
0.00822791
0.00813634
0.00805174
0.00797316
0.00789964
0.0078301
0.00776305
0.00769574
0.0076239
0.00753583
0.0688026
0.0517091
0.0428264
0.0374215
0.0337875
0.0311738
0.0292009
0.0276574
0.0264156
0.0253943
0.0245389
0.0238117
0.0231855
0.0226403
0.0221612
0.0217365
0.0213574
0.0210166
0.0207085
0.0204282
0.0201721
0.0199368
0.0197194
0.0195177
0.0193293
0.0191518
0.0189832
0.0188206
0.0186613
0.0184997
0.0910722
0.0781364
0.0686651
0.0617868
0.0566629
0.0527323
0.0496357
0.0471399
0.0450891
0.0433761
0.0419252
0.0406813
0.0396036
0.0386613
0.0378305
0.0370927
0.0364333
0.0358402
0.0353041
0.0348168
0.034372
0.0339639
0.033588
0.03324
0.0329164
0.0326139
0.0323294
0.0320599
0.031803
0.0315556
0.0997299
0.0929013
0.0862589
0.0804629
0.07558
0.0714979
0.0680747
0.0651835
0.0627207
0.0606044
0.0587708
0.0571697
0.0557615
0.0545148
0.0534043
0.0524097
0.0515143
0.0507043
0.0499684
0.049297
0.0486822
0.0481169
0.0475953
0.0471123
0.0466634
0.0462446
0.0458523
0.0454834
0.045135
0.0448039
0.102739
0.0996736
0.0959605
0.0921447
0.0885147
0.0851892
0.0821978
0.0795284
0.0771526
0.0750372
0.0731499
0.0714613
0.0699452
0.0685795
0.0673447
0.0662244
0.0652047
0.0642733
0.0634201
0.062636
0.0619133
0.0612454
0.0606264
0.0600511
0.0595149
0.0590138
0.0585442
0.058103
0.0576871
0.057293
0.103741
0.102462
0.100641
0.0984957
0.096217
0.093936
0.0917323
0.0896482
0.0877026
0.0859002
0.0842376
0.0827073
0.0812998
0.0800051
0.0788132
0.0777146
0.0767005
0.075763
0.0748947
0.0740892
0.0733405
0.0726432
0.0719927
0.0713847
0.0708153
0.070281
0.0697787
0.0693056
0.068859
0.068435
0.104068
0.103534
0.102699
0.101607
0.100335
0.0989547
0.0975279
0.0960991
0.0946988
0.0933466
0.0920544
0.090828
0.0896697
0.0885791
0.0875545
0.086593
0.0856911
0.0848455
0.0840523
0.083308
0.0826091
0.0819523
0.0813345
0.0807528
0.0802045
0.0796872
0.0791984
0.0787361
0.0782979
0.0778804
0.104172
0.103927
0.103543
0.103012
0.102351
0.101585
0.100746
0.0998599
0.0989503
0.0980356
0.0971297
0.0962426
0.0953812
0.0945501
0.0937521
0.0929885
0.0922597
0.0915656
0.0909054
0.0902779
0.089682
0.0891161
0.0885788
0.0880685
0.0875839
0.0871235
0.0866858
0.0862694
0.0858727
0.0854928
0.104204
0.104065
0.10387
0.103605
0.103267
0.102861
0.102396
0.101883
0.101336
0.100765
0.100181
0.0995906
0.0990021
0.0984202
0.0978489
0.0972914
0.0967496
0.0962251
0.0957186
0.0952308
0.0947617
0.0943113
0.0938792
0.093465
0.0930683
0.0926884
0.0923246
0.0919764
0.0916425
0.0913208
0.104213
0.104111
0.10399
0.103841
0.103658
0.103438
0.103183
0.102895
0.10258
0.102241
0.101886
0.101517
0.101141
0.10076
0.100378
0.0999988
0.0996234
0.0992541
0.0988922
0.0985388
0.0981947
0.0978604
0.0975363
0.0972226
0.0969194
0.0966266
0.0963441
0.0960717
0.0958088
0.0955536
0.104214
0.104125
0.104032
0.103929
0.103814
0.103683
0.103534
0.103368
0.103185
0.102987
0.102775
0.102552
0.10232
0.102082
0.101839
0.101594
0.101347
0.101101
0.100857
0.100615
0.100377
0.100143
0.099914
0.0996902
0.0994718
0.0992593
0.0990526
0.0988518
0.0986566
0.0984658
0.104214
0.104129
0.104045
0.103961
0.103873
0.103781
0.103682
0.103576
0.103461
0.103339
0.103209
0.103072
0.10293
0.102782
0.102629
0.102474
0.102317
0.102158
0.101999
0.10184
0.101682
0.101525
0.10137
0.101217
0.101067
0.10092
0.100776
0.100635
0.100497
0.100361
0.104213
0.104129
0.104048
0.103971
0.103894
0.103817
0.10374
0.103661
0.10358
0.103495
0.103408
0.103318
0.103225
0.103129
0.103031
0.10293
0.102829
0.102726
0.102623
0.102519
0.102415
0.102312
0.102209
0.102107
0.102007
0.101908
0.10181
0.101714
0.101619
0.101526
0.104211
0.104128
0.104048
0.103973
0.1039
0.10383
0.103761
0.103694
0.103627
0.10356
0.103493
0.103426
0.103359
0.10329
0.103222
0.103152
0.103083
0.103013
0.102943
0.102873
0.102803
0.102733
0.102664
0.102596
0.102528
0.102461
0.102395
0.10233
0.102265
0.102201
0.10421
0.104126
0.104047
0.103972
0.103901
0.103833
0.103768
0.103705
0.103644
0.103585
0.103528
0.103471
0.103416
0.103361
0.103307
0.103254
0.103201
0.103149
0.103097
0.103046
0.102995
0.102946
0.102896
0.102848
0.1028
0.102753
0.102706
0.102661
0.102616
0.102571
0.104208
0.104125
0.104046
0.103971
0.1039
0.103833
0.103769
0.103708
0.10365
0.103594
0.10354
0.103488
0.103438
0.103389
0.103342
0.103297
0.103252
0.103209
0.103167
0.103125
0.103085
0.103046
0.103007
0.10297
0.102933
0.102898
0.102863
0.102828
0.102795
0.102761
0.104206
0.104123
0.104044
0.10397
0.103899
0.103832
0.103768
0.103708
0.10365
0.103595
0.103543
0.103493
0.103445
0.1034
0.103356
0.103313
0.103273
0.103234
0.103196
0.103159
0.103124
0.10309
0.103057
0.103025
0.102995
0.102965
0.102936
0.102908
0.10288
0.102853
0.104205
0.104121
0.104042
0.103968
0.103897
0.10383
0.103767
0.103707
0.103649
0.103595
0.103543
0.103494
0.103447
0.103402
0.10336
0.103319
0.10328
0.103242
0.103207
0.103172
0.103139
0.103108
0.103078
0.103049
0.103021
0.102994
0.102968
0.102943
0.102918
0.102894
0.104203
0.10412
0.104041
0.103966
0.103895
0.103829
0.103765
0.103705
0.103648
0.103594
0.103542
0.103493
0.103447
0.103402
0.10336
0.10332
0.103281
0.103245
0.10321
0.103176
0.103145
0.103114
0.103085
0.103057
0.10303
0.103005
0.10298
0.102957
0.102934
0.102911
0.104201
0.104118
0.104039
0.103964
0.103894
0.103827
0.103763
0.103703
0.103646
0.103592
0.10354
0.103492
0.103445
0.103401
0.103359
0.103319
0.103281
0.103244
0.10321
0.103177
0.103145
0.103115
0.103087
0.103059
0.103033
0.103008
0.102984
0.102961
0.102939
0.102917
0.104199
0.104116
0.104037
0.103962
0.103892
0.103825
0.103761
0.103701
0.103644
0.10359
0.103539
0.10349
0.103443
0.103399
0.103357
0.103317
0.103279
0.103243
0.103208
0.103176
0.103144
0.103114
0.103086
0.103059
0.103033
0.103008
0.102985
0.102962
0.10294
0.102918
0.104197
0.104114
0.104035
0.10396
0.10389
0.103823
0.103759
0.103699
0.103642
0.103588
0.103537
0.103488
0.103441
0.103397
0.103355
0.103315
0.103277
0.103241
0.103207
0.103174
0.103143
0.103113
0.103085
0.103057
0.103032
0.103007
0.102984
0.102961
0.102939
0.102917
0.104195
0.104112
0.104033
0.103958
0.103888
0.103821
0.103757
0.103697
0.10364
0.103586
0.103535
0.103486
0.103439
0.103395
0.103353
0.103313
0.103275
0.103239
0.103205
0.103172
0.103141
0.103111
0.103083
0.103056
0.10303
0.103005
0.102982
0.102959
0.102937
0.102916
0.104193
0.10411
0.104031
0.103956
0.103886
0.103819
0.103755
0.103695
0.103638
0.103584
0.103533
0.103484
0.103437
0.103393
0.103351
0.103311
0.103273
0.103237
0.103203
0.10317
0.103139
0.103109
0.103081
0.103054
0.103028
0.103003
0.10298
0.102957
0.102936
0.102914
0.104191
0.104107
0.104029
0.103954
0.103883
0.103817
0.103753
0.103693
0.103636
0.103582
0.10353
0.103482
0.103435
0.103391
0.103349
0.103309
0.103271
0.103235
0.103201
0.103168
0.103137
0.103107
0.103079
0.103052
0.103026
0.103001
0.102978
0.102955
0.102933
0.102912
0.104189
0.104105
0.104026
0.103952
0.103881
0.103814
0.103751
0.103691
0.103634
0.10358
0.103528
0.103479
0.103433
0.103389
0.103347
0.103307
0.103269
0.103233
0.103198
0.103166
0.103134
0.103105
0.103076
0.103049
0.103024
0.102999
0.102976
0.102953
0.102931
0.10291
0.104186
0.104103
0.104024
0.10395
0.103879
0.103812
0.103749
0.103688
0.103631
0.103577
0.103526
0.103477
0.103431
0.103387
0.103345
0.103305
0.103267
0.103231
0.103196
0.103163
0.103132
0.103102
0.103074
0.103047
0.103021
0.102997
0.102973
0.102951
0.102929
0.102907
0.104184
0.104101
0.104022
0.103947
0.103877
0.10381
0.103746
0.103686
0.103629
0.103575
0.103524
0.103475
0.103428
0.103384
0.103342
0.103302
0.103264
0.103228
0.103194
0.103161
0.10313
0.1031
0.103072
0.103045
0.103019
0.102994
0.102971
0.102948
0.102927
0.102905
0.104181
0.104098
0.104019
0.103945
0.103874
0.103807
0.103744
0.103684
0.103627
0.103573
0.103521
0.103472
0.103426
0.103382
0.10334
0.1033
0.103262
0.103226
0.103191
0.103159
0.103127
0.103098
0.103069
0.103042
0.103017
0.102992
0.102968
0.102946
0.102924
0.102903
0.104179
0.104096
0.104017
0.103942
0.103872
0.103805
0.103741
0.103681
0.103624
0.10357
0.103519
0.10347
0.103423
0.103379
0.103337
0.103297
0.103259
0.103223
0.103189
0.103156
0.103125
0.103095
0.103067
0.10304
0.103014
0.102989
0.102966
0.102943
0.102922
0.1029
0.104176
0.104093
0.104014
0.103939
0.103869
0.103802
0.103739
0.103679
0.103621
0.103567
0.103516
0.103467
0.103421
0.103377
0.103335
0.103295
0.103257
0.103221
0.103186
0.103154
0.103122
0.103093
0.103064
0.103037
0.103011
0.102987
0.102963
0.102941
0.102919
0.102897
0.104173
0.10409
0.104011
0.103937
0.103866
0.103799
0.103736
0.103676
0.103619
0.103565
0.103513
0.103464
0.103418
0.103374
0.103332
0.103292
0.103254
0.103218
0.103184
0.103151
0.10312
0.10309
0.103062
0.103034
0.103009
0.102984
0.102961
0.102938
0.102916
0.102895
0.104171
0.104087
0.104009
0.103934
0.103863
0.103797
0.103733
0.103673
0.103616
0.103562
0.10351
0.103462
0.103415
0.103371
0.103329
0.103289
0.103251
0.103215
0.103181
0.103148
0.103117
0.103087
0.103059
0.103032
0.103006
0.102981
0.102958
0.102935
0.102914
0.102892
0.104168
0.104084
0.104006
0.103931
0.103861
0.103794
0.10373
0.10367
0.103613
0.103559
0.103508
0.103459
0.103412
0.103368
0.103326
0.103286
0.103249
0.103212
0.103178
0.103145
0.103114
0.103084
0.103056
0.103029
0.103003
0.102979
0.102955
0.102933
0.102911
0.102889
0.104165
0.104081
0.104003
0.103928
0.103858
0.103791
0.103727
0.103667
0.10361
0.103556
0.103505
0.103456
0.103409
0.103365
0.103323
0.103284
0.103246
0.103209
0.103175
0.103142
0.103111
0.103081
0.103053
0.103026
0.103
0.102976
0.102952
0.10293
0.102908
0.102886
0.104162
0.104078
0.104
0.103925
0.103854
0.103788
0.103724
0.103664
0.103607
0.103553
0.103502
0.103453
0.103406
0.103362
0.10332
0.10328
0.103242
0.103206
0.103172
0.103139
0.103108
0.103078
0.10305
0.103023
0.102997
0.102972
0.102949
0.102926
0.102905
0.102883
0.104159
0.104075
0.103996
0.103922
0.103851
0.103784
0.103721
0.103661
0.103604
0.10355
0.103498
0.10345
0.103403
0.103359
0.103317
0.103277
0.103239
0.103203
0.103169
0.103136
0.103105
0.103075
0.103047
0.10302
0.102994
0.102969
0.102946
0.102923
0.102902
0.10288
0.104155
0.104072
0.103993
0.103919
0.103848
0.103781
0.103718
0.103658
0.103601
0.103547
0.103495
0.103446
0.1034
0.103356
0.103314
0.103274
0.103236
0.1032
0.103166
0.103133
0.103102
0.103072
0.103043
0.103016
0.102991
0.102966
0.102943
0.10292
0.102898
0.102877
0.104152
0.104069
0.10399
0.103915
0.103845
0.103778
0.103714
0.103654
0.103597
0.103543
0.103492
0.103443
0.103397
0.103352
0.103311
0.103271
0.103233
0.103197
0.103162
0.103129
0.103098
0.103068
0.10304
0.103013
0.102987
0.102963
0.102939
0.102917
0.102895
0.102873
0.104148
0.104065
0.103986
0.103912
0.103841
0.103774
0.103711
0.103651
0.103594
0.10354
0.103488
0.103439
0.103393
0.103349
0.103307
0.103267
0.103229
0.103193
0.103159
0.103126
0.103095
0.103065
0.103037
0.10301
0.102984
0.102959
0.102936
0.102913
0.102891
0.10287
0.104145
0.104061
0.103983
0.103908
0.103837
0.103771
0.103707
0.103647
0.10359
0.103536
0.103485
0.103436
0.10339
0.103345
0.103303
0.103264
0.103226
0.10319
0.103155
0.103122
0.103091
0.103061
0.103033
0.103006
0.10298
0.102956
0.102932
0.10291
0.102888
0.102866
0.104141
0.104058
0.103979
0.103904
0.103834
0.103767
0.103704
0.103643
0.103586
0.103532
0.103481
0.103432
0.103386
0.103342
0.1033
0.10326
0.103222
0.103186
0.103151
0.103119
0.103087
0.103058
0.103029
0.103002
0.102977
0.102952
0.102928
0.102906
0.102884
0.102863
0.104137
0.104054
0.103975
0.1039
0.10383
0.103763
0.1037
0.10364
0.103583
0.103529
0.103477
0.103428
0.103382
0.103338
0.103296
0.103256
0.103218
0.103182
0.103148
0.103115
0.103084
0.103054
0.103026
0.102998
0.102973
0.102948
0.102925
0.102902
0.10288
0.102859
0.104133
0.10405
0.103971
0.103896
0.103826
0.103759
0.103696
0.103636
0.103579
0.103525
0.103473
0.103424
0.103378
0.103334
0.103292
0.103252
0.103214
0.103178
0.103144
0.103111
0.10308
0.10305
0.103022
0.102995
0.102969
0.102944
0.102921
0.102898
0.102876
0.102855
0.104129
0.104046
0.103967
0.103892
0.103822
0.103755
0.103692
0.103632
0.103575
0.10352
0.103469
0.10342
0.103374
0.10333
0.103288
0.103248
0.10321
0.103174
0.10314
0.103107
0.103076
0.103046
0.103017
0.10299
0.102965
0.10294
0.102917
0.102894
0.102872
0.102851
0.104125
0.104041
0.103963
0.103888
0.103818
0.103751
0.103687
0.103627
0.10357
0.103516
0.103465
0.103416
0.10337
0.103326
0.103284
0.103244
0.103206
0.10317
0.103135
0.103103
0.103071
0.103042
0.103013
0.102986
0.102961
0.102936
0.102912
0.10289
0.102868
0.102847
0.10412
0.104037
0.103958
0.103884