/*--------------------------------*- C++ -*----------------------------------*\
| =========                 |                                                 |
| \\      /  F ield         | OpenFOAM: The Open Source CFD Toolbox           |
|  \\    /   O peration     | Version:  2.2.0                                 |
|   \\  /    A nd           | Web:      www.OpenFOAM.org                      |
|    \\/     M anipulation  |                                                 |
\*---------------------------------------------------------------------------*/
FoamFile
{
    version     2.0;
    format      ascii;
    class       volScalarField;
    location    "1000";
    object      epsilon;
}
// * * * * * * * * * * * * * * * * * * * * * * * * * * * * * * * * * * * * * //

dimensions      [0 2 -3 0 0 0 0];

internalField   nonuniform List<scalar> 
7600
(
0.000112528
0.0002313
0.000375624
0.000528301
0.000675479
0.000806051
0.000911625
0.000987137
0.00103124
0.00104647
0.00103935
0.00102089
0.00101608
0.00104442
0.00112758
0.00129239
0.00155351
0.00188425
0.00220723
0.0024859
0.00291313
0.00382927
0.0050571
0.00603288
0.00651103
0.00644953
0.00596081
0.0052306
0.00442452
0.00371654
0.00310105
0.00256512
0.00210073
0.00170032
0.00135709
0.00106572
0.000822434
0.000622567
0.000448027
0.000264788
0.000267619
0.000278836
0.000313114
0.000346961
0.000378403
0.000405262
0.000425828
0.000439165
0.000445237
0.000444966
0.000440319
0.00043473
0.000436857
0.000455337
0.000501027
0.000589378
0.000734707
0.000935432
0.00115797
0.00135302
0.00155022
0.00191028
0.00239112
0.00275227
0.00290303
0.00284392
0.00263323
0.00234887
0.00205311
0.00180089
0.00158418
0.00139371
0.00122293
0.00106692
0.000922222
0.00078723
0.000663481
0.000557328
0.000475618
0.000530163
0.00044932
0.000401553
0.000408712
0.000414549
0.000416381
0.000413978
0.000407678
0.000398114
0.000386273
0.000373554
0.000361883
0.000354151
0.000356428
0.000375862
0.000422289
0.000509285
0.000650066
0.000844317
0.00106051
0.00124575
0.00142138
0.001713
0.00209275
0.00237407
0.00247492
0.00239648
0.00219325
0.00193812
0.00168873
0.00148036
0.00131116
0.00117149
0.00105223
0.000946076
0.000847942
0.00075573
0.000671984
0.000606385
0.000584552
0.000852146
0.000655972
0.000523649
0.000506703
0.000495384
0.000480836
0.000462202
0.000440411
0.000416883
0.000393315
0.000371687
0.000354405
0.000344818
0.000349004
0.000374137
0.00043041
0.000531157
0.000688231
0.000897911
0.00112321
0.00131251
0.0015002
0.00179327
0.00214328
0.0024086
0.00249039
0.00238764
0.00215693
0.00187649
0.00161048
0.001393
0.00122408
0.00109229
0.000986285
0.000896933
0.000818115
0.000747576
0.00068878
0.000655376
0.000695684
0.00119818
0.00089194
0.000645716
0.000599211
0.000571611
0.000544461
0.000514591
0.000482429
0.000449544
0.00041805
0.000390489
0.000369961
0.000360785
0.000369942
0.000405436
0.00047852
0.000602693
0.000787385
0.00102176
0.00125994
0.00145651
0.00167553
0.00198946
0.00232543
0.00257957
0.00265332
0.00252842
0.00226241
0.00193892
0.00163269
0.00138468
0.00119792
0.00105822
0.000951524
0.000866852
0.000797186
0.000740341
0.000701152
0.000698832
0.000806339
0.00154662
0.00116223
0.000771268
0.000688729
0.000643121
0.000603967
0.000564855
0.000525058
0.000485824
0.000449408
0.000418825
0.000398007
0.000392723
0.000411094
0.000462706
0.000560243
0.000716913
0.000937426
0.0011994
0.00144347
0.00165675
0.00191633
0.00225267
0.00257416
0.0028033
0.00287326
0.00273819
0.00244398
0.00207395
0.00171388
0.00141944
0.00120226
0.00104475
0.000929348
0.00084275
0.000776895
0.000729753
0.000708044
0.000737736
0.000916989
0.00188439
0.00147408
0.000904939
0.000779862
0.000713972
0.000662316
0.000614565
0.000568491
0.0005248
0.000485762
0.00045487
0.000437077
0.000440056
0.000473271
0.000548195
0.000678914
0.000876575
0.0011371
0.00141643
0.00166309
0.00190226
0.00220177
0.00254927
0.00284572
0.00303811
0.0030954
0.0029735
0.00267639
0.00227238
0.00185152
0.00149287
0.00123121
0.00104609
0.000915109
0.000821702
0.000756216
0.000716653
0.000711952
0.000775461
0.00103012
0.00220425
0.00183674
0.00105151
0.000877515
0.000789209
0.000724384
0.000668133
0.000616514
0.000569634
0.000529831
0.000501245
0.000490204
0.000506874
0.000561851
0.000668503
0.000841438
0.00108564
0.0013762
0.0016574
0.00191148
0.00217812
0.00250546
0.00284267
0.00309944
0.00325212
0.0032912
0.00319974
0.00294567
0.00254558
0.00207079
0.00162531
0.00129565
0.00106777
0.000911962
0.000806183
0.000737886
0.000704522
0.000717198
0.000816868
0.00115046
0.00250539
0.00226172
0.00121624
0.00098694
0.000874401
0.000795943
0.000731364
0.000674829
0.000625891
0.000587147
0.000563747
0.000563977
0.000600871
0.000685524
0.000832294
0.00105419
0.00133395
0.00163276
0.00191229
0.00217382
0.00245902
0.00279006
0.00309053
0.00329732
0.00341937
0.00345918
0.0034044
0.00323346
0.00290909
0.0024254
0.00187846
0.0014312
0.00113045
0.000932511
0.000804767
0.000728725
0.000699653
0.000730142
0.000868723
0.00128551
0.00279386
0.00276336
0.00140538
0.00111417
0.00097588
0.000883668
0.000811227
0.000750664
0.000701079
0.000665645
0.000651136
0.000668834
0.000732541
0.000854524
0.00104644
0.00130166
0.00159596
0.00189102
0.00216274
0.00242351
0.00270612
0.00300805
0.00325002
0.00341045
0.00352615
0.00360016
0.00361407
0.00354004
0.00334014
0.00296636
0.00235684
0.0017192
0.00128322
0.00100597
0.000835934
0.000741716
0.000712379
0.000760079
0.000940512
0.00144621
0.00308301
0.00336015
0.00162706
0.00126663
0.00110119
0.00099546
0.000916075
0.000852902
0.000804728
0.000775692
0.000774912
0.00081812
0.000912447
0.00106862
0.00128905
0.00155926
0.00184933
0.00212678
0.00237899
0.00262041
0.00286963
0.00311078
0.00328973
0.0034272
0.00357127
0.0037149
0.00383231
0.00388925
0.00384086
0.00362482
0.00316359
0.00238391
0.00164806
0.0011988
0.000938393
0.000801548
0.000760349
0.000821494
0.0010462
0.00164827
0.00339385
0.00408045
0.00189335
0.00145394
0.00125958
0.00114081
0.0010559
0.000992203
0.000948359
0.000929739
0.000947141
0.0010129
0.00113021
0.00130647
0.00153606
0.00179843
0.00206358
0.00230634
0.00252043
0.00271613
0.00290147
0.00306678
0.00320349
0.00335469
0.00355747
0.00379293
0.00403435
0.00424933
0.00439345
0.00439784
0.00416089
0.00355668
0.00251994
0.00167182
0.00120123
0.000960694
0.000877688
0.000939688
0.0012078
0.00191416
0.0037568
0.00499103
0.00222726
0.0016899
0.00146267
0.00133102
0.00124215
0.00117992
0.00114222
0.00113472
0.00116783
0.00124116
0.00136501
0.00153996
0.00175401
0.00198388
0.00220253
0.00239086
0.00254491
0.00267121
0.00277884
0.00288205
0.00301414
0.00320875
0.00348104
0.00380904
0.00417263
0.00454846
0.00490264
0.00517624
0.00526597
0.00501026
0.00422387
0.00286221
0.00186964
0.00135319
0.00114361
0.00116765
0.00146628
0.00228044
0.00421378
0.00603873
0.00261864
0.00197526
0.00171524
0.00157219
0.0014806
0.00141999
0.0013865
0.00138408
0.00141049
0.00147508
0.00158429
0.00173339
0.00190661
0.00208087
0.00223343
0.00235022
0.00242971
0.00248095
0.00252517
0.00260167
0.00275878
0.00300268
0.00333408
0.00373719
0.00420059
0.00471181
0.00525271
0.00578784
0.00624363
0.0064784
0.00626358
0.00532846
0.00359365
0.00239235
0.00178421
0.00164139
0.00191103
0.00281183
0.00483018
0.00718681
0.00305917
0.00230712
0.00201548
0.0018618
0.00176647
0.00170301
0.00166364
0.00164052
0.00164299
0.00168015
0.00175328
0.00185405
0.00196578
0.00206808
0.00214361
0.00218413
0.00219352
0.0021885
0.00220214
0.00228282
0.00246933
0.00274766
0.00311656
0.00356924
0.00409959
0.00470256
0.00537319
0.00610032
0.00685604
0.007566
0.00806879
0.00807197
0.00716481
0.00508659
0.00350868
0.00279273
0.00281399
0.00368891
0.00569202
0.00834232
0.00352157
0.00266528
0.0023433
0.00217655
0.00207068
0.00198819
0.00191632
0.00186152
0.00183002
0.00182568
0.00184688
0.00188481
0.00192493
0.00195173
0.00195442
0.00193158
0.00189333
0.00186186
0.00187183
0.00196497
0.00216568
0.0024568
0.00283877
0.00331674
0.00388387
0.00453698
0.0052778
0.00610264
0.00701894
0.00802258
0.00907161
0.0100371
0.0106109
0.0102166
0.00812886
0.00593649
0.00498222
0.00536827
0.00709027
0.00937773
0.00395693
0.00300012
0.0026356
0.00243735
0.00230005
0.00219083
0.00209723
0.00201592
0.00194822
0.00189636
0.00185965
0.00183224
0.00180432
0.00176636
0.00171397
0.00165106
0.00159063
0.0015537
0.00156752
0.00166226
0.00185515
0.00214041
0.00252541
0.00301478
0.00359811
0.00426579
0.00504118
0.00590282
0.00685649
0.00792811
0.00914395
0.0105307
0.0120642
0.0135597
0.0144507
0.0134443
0.0106185
0.00899102
0.00930132
0.00956156
0.00404482
0.00307399
0.0027123
0.00252237
0.00239532
0.00229067
0.00219129
0.00209137
0.00199154
0.00189537
0.00180569
0.00172185
0.00163986
0.00155569
0.00146917
0.00138591
0.00131685
0.00127622
0.0012799
0.00134721
0.00149703
0.00173938
0.00208905
0.00256108
0.00315884
0.00387907
0.0047113
0.00562969
0.0066046
0.00766178
0.00880402
0.0100814
0.0115778
0.0134006
0.0156317
0.0181326
0.0198794
0.0179753
0.0113915
0.00925804
0.00387345
0.00294724
0.00261896
0.00245813
0.00235528
0.00226813
0.00217706
0.00207374
0.00195739
0.00183248
0.00170566
0.00158219
0.00146412
0.00135175
0.00124664
0.00115292
0.00107636
0.00102247
0.000996132
0.0010083
0.00108557
0.00125893
0.00154692
0.00197089
0.00254789
0.00328881
0.00419073
0.0052316
0.00636974
0.00755048
0.00872181
0.00986147
0.0109709
0.0120731
0.0132271
0.0144749
0.0157321
0.0163492
0.00963376
0.00837491
0.0035086
0.0026701
0.00238124
0.00225029
0.00217523
0.0021145
0.00204647
0.00195952
0.0018496
0.00171961
0.00157779
0.00143425
0.00129683
0.00116993
0.00105557
0.000955216
0.000868978
0.000794367
0.0007268
0.000669046
0.000654693
0.000738995
0.000929838
0.00124724
0.00172992
0.00242283
0.00336268
0.00455914
0.00597623
0.00752623
0.00908636
0.0105355
0.0117884
0.0128118
0.0136282
0.0143187
0.0150378
0.016064
0.0191959
0.00724013
0.00307337
0.00234403
0.00209521
0.00198922
0.00193681
0.00190025
0.00185816
0.00179679
0.00170852
0.00159251
0.00145512
0.0013081
0.00116378
0.00103119
0.000912938
0.000809225
0.000716449
0.000627328
0.000531847
0.000426793
0.000345814
0.000355169
0.000441293
0.000609983
0.000909966
0.00142231
0.0022526
0.00349958
0.00519761
0.00726601
0.00950401
0.0116606
0.0135262
0.0149756
0.0159957
0.0167211
0.0175734
0.0198464
0.0309932
0.0061541
0.00267566
0.00205416
0.00184183
0.00175508
0.00171838
0.00169923
0.00167812
0.001641
0.0015779
0.00148411
0.00136195
0.00122093
0.00107397
0.000947068
0.000823074
0.00071779
0.000623384
0.000530939
0.000429768
0.00031651
0.00022459
0.000213226
0.000246177
0.000316521
0.000453366
0.000728675
0.00128804
0.0023545
0.00413413
0.00666705
0.00971065
0.0128376
0.0156617
0.0179137
0.019496
0.0205208
0.0215256
0.02458
0.0438335
0.00518437
0.00233174
0.00181154
0.00163309
0.00156263
0.00153756
0.00153074
0.00152536
0.00150828
0.0014687
0.00139913
0.00129746
0.00116845
0.00102586
0.00089705
0.000773365
0.000666755
0.000572239
0.000481396
0.000385763
0.000289086
0.000221587
0.00020407
0.000219027
0.000258916
0.000333551
0.00047863
0.000800323
0.00155802
0.00313199
0.00585155
0.00958711
0.0137285
0.0176905
0.0210177
0.0235018
0.0251848
0.0266257
0.0304177
0.0573432
0.00441462
0.00206341
0.00162143
0.00146937
0.0014111
0.00139388
0.00139494
0.00140005
0.00139753
0.00137685
0.00132924
0.00124971
0.00113964
0.00100958
0.000881221
0.000757992
0.000649235
0.000553439
0.000464379
0.00037666
0.000298638
0.000250234
0.000233895
0.00024337
0.00027618
0.000338556
0.000453112
0.000685244
0.00121381
0.0024526
0.0050341
0.00921438
0.0142584
0.0194218
0.0240153
0.0277053
0.030425
0.0326978
0.0375
0.0721015
0.00377124
0.00184119
0.00146839
0.00133969
0.00129178
0.00128042
0.00128667
0.00129869
0.0013066
0.00130087
0.00127264
0.00121523
0.00112689
0.00101384
0.000892055
0.000770794
0.000659802
0.000561154
0.000471865
0.000389479
0.000323562
0.000285237
0.000271862
0.000281435
0.000314132
0.000375965
0.00048504
0.000692104
0.00114189
0.00220744
0.00456114
0.00872832
0.0144358
0.0207787
0.0267643
0.0319465
0.036107
0.0396887
0.0459733
0.0887417
0.00322918
0.00165189
0.00134113
0.00123397
0.00119556
0.00118919
0.00119929
0.00121623
0.0012319
0.00123817
0.00122678
0.0011904
0.0011249
0.0010323
0.000922898
0.000806988
0.000695122
0.000592759
0.00050072
0.000419566
0.000359166
0.000325482
0.000314428
0.000326062
0.000361833
0.000428251
0.000542183
0.000748137
0.00117202
0.00215245
0.00436887
0.00851402
0.0145601
0.0217495
0.0291958
0.0361429
0.0421762
0.0476276
0.0560198
0.107994
0.00277503
0.00148791
0.00123174
0.00114428
0.00111481
0.00111312
0.00112656
0.00114752
0.00116956
0.00118601
0.00118959
0.00117302
0.00113062
0.00106084
0.000968713
0.000862546
0.000752619
0.000646973
0.000550312
0.000466587
0.000406654
0.000374132
0.000364665
0.000378611
0.00041892
0.000493329
0.000619797
0.000842248
0.0012788
0.00224331
0.00439083
0.00849578
0.0147661
0.0226706
0.0314109
0.0402388
0.0486003
0.0565761
0.0680975
0.130692
0.00239846
0.0013443
0.00113461
0.0010647
0.00104359
0.00104655
0.00106345
0.00108839
0.00111644
0.00114233
0.00115993
0.00116235
0.00114302
0.00109762
0.00102651
0.000934487
0.000830149
0.00072288
0.00062086
0.00053181
0.000468806
0.000435181
0.000427221
0.000443252
0.000489863
0.000577063
0.000726723
0.000988504
0.00148463
0.0025165
0.00469121
0.00877293
0.0151557
0.0236267
0.0336184
0.0444356
0.0554136
0.0665522
0.0820886
0.157663
0.00209077
0.00121758
0.0010458
0.000990983
0.000977652
0.000985473
0.00100641
0.001036
0.00107063
0.00110628
0.00113789
0.00115917
0.00116306
0.00114309
0.00109568
0.00102155
0.000926536
0.000820093
0.000713193
0.000617599
0.000549939
0.000514835
0.00050849
0.000529473
0.000588225
0.00069954
0.000894489
0.00123806
0.00187074
0.00309029
0.00542876
0.0095582
0.0159886
0.0248671
0.0359982
0.0488876
0.0628598
0.0778331
0.0984705
0.190284
0.00184467
0.00110537
0.00096283
0.000920518
0.000914451
0.000927647
0.000953695
0.000989314
0.00103196
0.00107868
0.00112539
0.00116633
0.00119415
0.00120072
0.00117906
0.00112589
0.00104373
0.000941234
0.000831592
0.000730996
0.000660968
0.000628654
0.000631131
0.000668403
0.000754231
0.000918495
0.0012123
0.00173117
0.00264515
0.00423483
0.00691112
0.0111963
0.0176587
0.026804
0.0389191
0.0538832
0.0711549
0.0906787
0.117891
0.23026
0.00165425
0.00100606
0.00088444
0.000852255
0.000853264
0.000872816
0.000905698
0.000949556
0.00100273
0.00106314
0.00112747
0.00119043
0.00124438
0.00127973
0.00128663
0.00125806
0.00119333
0.00110004
0.000993622
0.000895822
0.000834819
0.000821559
0.000856516
0.000946307
0.0011032
0.00140165
0.00193435
0.00283942
0.00429273
0.0064905
0.0096702
0.0142027
0.020695
0.0299817
0.0428988
0.0598773
0.0806961
0.105457
0.140593
0.278543
0.00151506
0.000918558
0.000810596
0.000786898
0.000795543
0.000823291
0.000865797
0.000921492
0.000989492
0.00106849
0.00115581
0.00124655
0.00133285
0.00140369
0.0014466
0.00145136
0.00141459
0.00134349
0.00125718
0.0011868
0.00117166
0.00122974
0.0013725
0.00162198
0.00201317
0.00267123
0.00378134
0.00546332
0.0077836
0.0107659
0.0144913
0.0192543
0.025721
0.0350147
0.0485409
0.0674406
0.0920318
0.122744
0.16724
0.336932
0.00142431
0.000842208
0.000742856
0.000727553
0.000745834
0.00078526
0.000842309
0.000916372
0.00100752
0.00111541
0.00123828
0.00137203
0.00150895
0.00163653
0.00173974
0.00180558
0.00182914
0.00181983
0.00180639
0.00184364
0.00199759
0.00230227
0.00279787
0.00353856
0.00460069
0.00616316
0.00840328
0.0112381
0.0145325
0.0181869
0.0222509
0.0270465
0.0333277
0.0424661
0.0564208
0.0771684
0.105803
0.143289
0.198713
0.407645
0.00139534
0.000780895
0.000686354
0.000681383
0.000713814
0.000771906
0.000853649
0.000960505
0.00109462
0.00125799
0.00145156
0.00167472
0.00192206
0.00217915
0.00242795
0.00265312
0.0028512
0.00304297
0.00328875
0.00371508
0.00444995
0.00553001
0.00700946
0.00893054
0.0113489
0.0144606
0.0180465
0.0218506
0.0256943
0.0295273
0.0334847
0.037972
0.0438366
0.052658
0.0669188
0.089534
0.122634
0.167966
0.236146
0.493539
0.00146179
0.000744946
0.000652919
0.00066378
0.000720548
0.00081433
0.000947561
0.00112886
0.00136777
0.00167608
0.00206636
0.00255537
0.0031506
0.00382993
0.00456671
0.00533779
0.00614256
0.00703142
0.00814127
0.00974307
0.0119701
0.0146793
0.0178211
0.021348
0.025307
0.0296262
0.033793
0.037681
0.0412536
0.0445916
0.0479366
0.0517734
0.0570263
0.0654465
0.0800136
0.104688
0.142968
0.1977
0.280989
0.598501
0.00158362
0.000739823
0.000663026
0.000712498
0.00082973
0.001016
0.00129686
0.00172503
0.00234712
0.0032276
0.00443281
0.00606211
0.00815431
0.0105614
0.0131391
0.0157451
0.0182996
0.0208452
0.0235862
0.0268869
0.0307002
0.034651
0.0386951
0.0428603
0.0472408
0.0511084
0.0544694
0.057351
0.059836
0.0620967
0.064443
0.0674109
0.0719801
0.0800449
0.0950662
0.12219
0.166772
0.233288
0.335171
0.728231
0.00173025
0.000790538
0.000789961
0.000981131
0.00134184
0.00195326
0.00297669
0.00474404
0.00762925
0.0118648
0.0174568
0.0244624
0.0324086
0.0399584
0.0465087
0.0516752
0.0554135
0.0580047
0.0599803
0.0619654
0.06416
0.0664448
0.0689099
0.0716318
0.0739821
0.0758197
0.0772378
0.0783166
0.0791761
0.0800192
0.0811811
0.0832215
0.0871557
0.0949944
0.110659
0.140654
0.192999
0.274909
0.401356
0.892618
0.00190173
0.00106214
0.00150457
0.00265442
0.00499089
0.00947499
0.0171982
0.028919
0.0465081
0.0671314
0.0876699
0.106156
0.120586
0.129729
0.133712
0.133359
0.129823
0.124375
0.118269
0.112527
0.108061
0.105085
0.10337
0.102184
0.101008
0.0998725
0.0987612
0.0976898
0.0967421
0.0961023
0.0960962
0.0972807
0.100678
0.108357
0.124587
0.157248
0.218141
0.320158
0.4838
1.11704
0.00228392
0.00323724
0.0086827
0.0241834
0.0568166
0.104357
0.157728
0.208088
0.25226
0.285826
0.305699
0.311625
0.30572
0.291324
0.271958
0.249977
0.227144
0.204877
0.184343
0.166318
0.152187
0.142092
0.134659
0.12864
0.123688
0.119516
0.11593
0.112836
0.110253
0.108322
0.107338
0.107827
0.110764
0.118142
0.134226
0.167871
0.235278
0.363235
0.605573
1.52126
0.00827199
0.0395485
0.126176
0.304458
0.549939
0.691948
0.754191
0.759246
0.726995
0.674549
0.614328
0.553828
0.49642
0.443242
0.393787
0.348073
0.306229
0.268544
0.235393
0.206912
0.18468
0.168518
0.156068
0.146276
0.138387
0.13188
0.126419
0.121828
0.118069
0.115244
0.113605
0.113625
0.116174
0.123005
0.13803
0.170013
0.238879
0.395097
0.785685
2.16727
0.289387
0.274594
0.261924
0.250925
0.241289
0.232787
0.225239
0.218506
0.212474
0.207047
0.202148
0.19771
0.193678
0.190004
0.186646
0.18357
0.180744
0.178143
0.175743
0.173524
0.171468
0.169558
0.167782
0.166126
0.164579
0.163131
0.161771
0.160489
0.159269
0.158012
0.0340916
0.045884
0.0517473
0.0546211
0.0558185
0.0560419
0.0556952
0.0550205
0.0541662
0.0532245
0.0522531
0.0512874
0.050349
0.0494506
0.048599
0.0477972
0.0470459
0.0463442
0.0456905
0.0450827
0.0445184
0.0439955
0.0435119
0.0430661
0.0426576
0.0422873
0.0419595
0.0416846
0.0414833
0.041396
0.0147117
0.0187816
0.0216664
0.023647
0.0249681
0.0258141
0.0263191
0.0265804
0.0266682
0.0266335
0.0265135
0.026335
0.0261179
0.0258765
0.0256213
0.02536
0.025098
0.0248392
0.0245864
0.0243416
0.0241061
0.0238808
0.0236665
0.0234636
0.0232727
0.0230937
0.0229277
0.0227757
0.0226389
0.0225173
0.0111938
0.0126725
0.0139684
0.0150138
0.0158232
0.0164322
0.0168779
0.0171933
0.0174059
0.0175381
0.0176079
0.0176296
0.0176145
0.0175715
0.0175077
0.0174286
0.0173388
0.0172415
0.0171396
0.0170351
0.0169297
0.0168248
0.0167213
0.0166203
0.0165223
0.016428
0.0163379
0.0162526
0.0161725
0.0160974
0.0102523
0.0107503
0.011292
0.0117948
0.0122285
0.012587
0.0128745
0.013099
0.0132696
0.0133948
0.0134824
0.013539
0.0135705
0.0135816
0.0135764
0.0135583
0.01353
0.0134938
0.0134516
0.0134051
0.0133554
0.0133036
0.0132507
0.0131973
0.013144
0.0130914
0.0130399
0.0129899
0.0129414
0.0128946
0.00996463
0.0100606
0.0102293
0.0104232
0.0106142
0.0107878
0.0109378
0.0110629
0.0111637
0.0112424
0.0113014
0.0113434
0.0113706
0.0113855
0.0113901
0.011386
0.0113749
0.0113581
0.0113367
0.0113118
0.0112841
0.0112543
0.011223
0.0111908
0.0111581
0.0111253
0.0110926
0.0110602
0.0110285
0.0109973
0.00987367
0.00980568
0.00979213
0.00981372
0.00985403
0.00990147
0.00994872
0.0099915
0.0100276
0.0100562
0.0100771
0.0100907
0.0100976
0.0100986
0.0100943
0.0100856
0.0100731
0.0100575
0.0100393
0.0100191
0.00999719
0.00997411
0.00995017
0.00992566
0.00990084
0.00987592
0.0098511
0.00982651
0.00980227
0.00977837
0.00984485
0.00971265
0.0096147
0.00954533
0.00949734
0.00946408
0.00944024
0.00942192
0.00940638
0.00939183
0.00937713
0.00936163
0.00934498
0.00932705
0.00930787
0.00928752
0.00926614
0.00924392
0.00922103
0.00919764
0.00917392
0.00915003
0.00912612
0.0091023
0.00907869
0.00905539
0.00903248
0.00901001
0.00898803
0.0089665
0.0098358
0.00967966
0.00954518
0.00943125
0.00933532
0.00925427
0.0091851
0.00912514
0.00907223
0.00902466
0.00898112
0.00894067
0.00890257
0.00886633
0.00883158
0.00879807
0.00876563
0.00873414
0.00870354
0.00867377
0.00864482
0.00861666
0.0085893
0.00856274
0.00853697
0.00851199
0.00848781
0.00846442
0.0084418
0.00841985
0.00983299
0.00966833
0.00951908
0.00938498
0.0092651
0.00915811
0.00906245
0.00897655
0.00889898
0.00882845
0.00876388
0.00870437
0.00864916
0.00859764
0.00854934
0.00850385
0.00846086
0.0084201
0.00838136
0.00834447
0.00830928
0.00827569
0.00824358
0.00821287
0.00818348
0.00815535
0.00812842
0.00810263
0.00807791
0.00805411
0.00983212
0.00966457
0.0095097
0.00936712
0.00923625
0.00911634
0.00900654
0.0089059
0.0088135
0.00872846
0.00864996
0.00857728
0.00850977
0.00844688
0.00838811
0.00833304
0.00828132
0.00823264
0.00818672
0.00814334
0.00810229
0.00806339
0.0080265
0.00799147
0.00795819
0.00792653
0.00789641
0.00786773
0.00784039
0.0078142
0.00983186
0.00966336
0.00950647
0.00936055
0.009225
0.00909919
0.00898247
0.00887418
0.00877365
0.00868026
0.00859337
0.00851244
0.00843692
0.00836634
0.00830027
0.00823833
0.00818016
0.00812545
0.00807393
0.00802535
0.00797948
0.00793614
0.00789513
0.00785631
0.00781952
0.00778463
0.00775152
0.00772008
0.00769018
0.00766162
0.00983178
0.00966298
0.00950539
0.00935825
0.00922084
0.00909252
0.00897269
0.00886075
0.00875614
0.00865835
0.00856687
0.00848122
0.00840095
0.00832567
0.00825499
0.00818857
0.00812608
0.00806724
0.00801178
0.00795945
0.00791005
0.00786337
0.00781922
0.00777743
0.00773786
0.00770036
0.00766481
0.00763107
0.00759901
0.00756841
0.00983175
0.00966286
0.00950505
0.00935747
0.00921937
0.00909006
0.00896892
0.00885537
0.00874889
0.00864898
0.00855518
0.00846707
0.00838424
0.00830633
0.00823299
0.00816392
0.0080988
0.00803738
0.00797941
0.00792465
0.00787289
0.00782394
0.00777761
0.00773375
0.0076922
0.00765281
0.00761545
0.00758
0.00754631
0.00751415
0.00983174
0.00966282
0.00950494
0.00935722
0.00921887
0.00908919
0.00896754
0.00885334
0.00874605
0.0086452
0.00855033
0.00846103
0.00837693
0.00829768
0.00822294
0.00815243
0.00808585
0.00802297
0.00796353
0.00790732
0.00785414
0.00780379
0.00775611
0.00771092
0.00766808
0.00762744
0.00758888
0.00755228
0.00751747
0.00748424
0.00983174
0.00966281
0.0095049
0.00935713
0.00921871
0.0090889
0.00896706
0.0088526
0.00874499
0.00864374
0.00854842
0.0084586
0.00837392
0.00829403
0.00821861
0.00814739
0.00808007
0.00801643
0.00795621
0.00789922
0.00784525
0.00779411
0.00774565
0.00769969
0.00765608
0.00761471
0.00757542
0.0075381
0.0075026
0.00746869
0.00983174
0.0096628
0.00950489
0.00935711
0.00921865
0.00908879
0.00896689
0.00885234
0.00874461
0.00864321
0.0085477
0.00845766
0.00837274
0.00829257
0.00821686
0.0081453
0.00807765
0.00801363
0.00795304
0.00789566
0.00784128
0.00778974
0.00774087
0.0076945
0.00765049
0.0076087
0.00756901
0.00753129
0.0074954
0.0074611
0.00983174
0.0096628
0.00950489
0.0093571
0.00921863
0.00908876
0.00896683
0.00885225
0.00874447
0.00864302
0.00854744
0.00845732
0.0083723
0.00829202
0.00821618
0.00814449
0.00807668
0.00801251
0.00795175
0.00789418
0.00783963
0.00778789
0.00773882
0.00769225
0.00764804
0.00760605
0.00756615
0.00752823
0.00749213
0.00745763
0.00983174
0.00966281
0.00950489
0.0093571
0.00921863
0.00908875
0.00896681
0.00885222
0.00874443
0.00864295
0.00854735
0.0084572
0.00837214
0.00829182
0.00821593
0.00814419
0.00807632
0.00801208
0.00795125
0.00789361
0.00783898
0.00778716
0.007738
0.00769134
0.00764704
0.00760495
0.00756496
0.00752694
0.00749075
0.00745615
0.00983174
0.00966281
0.00950489
0.0093571
0.00921863
0.00908875
0.00896681
0.00885221
0.00874441
0.00864293
0.00854731
0.00845716
0.00837208
0.00829175
0.00821585
0.00814408
0.00807619
0.00801193
0.00795107
0.00789341
0.00783874
0.00778689
0.0077377
0.00769101
0.00764666
0.00760454
0.00756451
0.00752645
0.00749022
0.00745557
0.00983174
0.00966281
0.0095049
0.0093571
0.00921863
0.00908875
0.00896681
0.00885221
0.00874441
0.00864292
0.0085473
0.00845714
0.00837207
0.00829173
0.00821582
0.00814405
0.00807615
0.00801189
0.00795102
0.00789334
0.00783867
0.00778681
0.00773761
0.0076909
0.00764654
0.00760441
0.00756436
0.00752628
0.00749004
0.00745537
0.00983174
0.00966281
0.0095049
0.00935711
0.00921864
0.00908876
0.00896681
0.00885221
0.00874441
0.00864293
0.00854731
0.00845714
0.00837207
0.00829173
0.00821582
0.00814405
0.00807615
0.00801188
0.00795101
0.00789334
0.00783866
0.0077868
0.00773759
0.00769088
0.00764652
0.00760438
0.00756433
0.00752625
0.00749
0.00745533
0.00983174
0.00966282
0.00950491
0.00935712
0.00921864
0.00908876
0.00896682
0.00885222
0.00874442
0.00864293
0.00854732
0.00845715
0.00837207
0.00829174
0.00821583
0.00814406
0.00807616
0.00801189
0.00795103
0.00789335
0.00783867
0.00778681
0.00773761
0.0076909
0.00764654
0.0076044
0.00756435
0.00752627
0.00749001
0.00745534
0.00983175
0.00966282
0.00950491
0.00935713
0.00921865
0.00908877
0.00896683
0.00885223
0.00874443
0.00864295
0.00854733
0.00845717
0.00837209
0.00829175
0.00821585
0.00814408
0.00807618
0.00801191
0.00795105
0.00789337
0.0078387
0.00778684
0.00773764
0.00769093
0.00764657
0.00760443
0.00756439
0.0075263
0.00749005
0.00745538
0.00983175
0.00966283
0.00950492
0.00935713
0.00921866
0.00908878
0.00896684
0.00885224
0.00874445
0.00864296
0.00854734
0.00845718
0.00837211
0.00829177
0.00821587
0.0081441
0.00807621
0.00801194
0.00795108
0.00789341
0.00783873
0.00778688
0.00773767
0.00769097
0.00764661
0.00760448
0.00756443
0.00752635
0.0074901
0.00745543
0.00983175
0.00966283
0.00950493
0.00935714
0.00921868
0.0090888
0.00896686
0.00885226
0.00874446
0.00864298
0.00854736
0.0084572
0.00837213
0.0082918
0.00821589
0.00814413
0.00807624
0.00801197
0.00795111
0.00789344
0.00783877
0.00778692
0.00773772
0.00769101
0.00764666
0.00760452
0.00756448
0.0075264
0.00749015
0.00745548
0.00983175
0.00966284
0.00950494
0.00935715
0.00921869
0.00908881
0.00896687
0.00885228
0.00874448
0.008643
0.00854739
0.00845723
0.00837216
0.00829182
0.00821592
0.00814416
0.00807627
0.00801201
0.00795115
0.00789348
0.00783881
0.00778696
0.00773776
0.00769106
0.00764671
0.00760457
0.00756453
0.00752645
0.00749021
0.00745554
0.00983175
0.00966284
0.00950495
0.00935717
0.0092187
0.00908883
0.00896689
0.00885229
0.0087445
0.00864302
0.00854741
0.00845725
0.00837218
0.00829185
0.00821595
0.00814419
0.0080763
0.00801204
0.00795119
0.00789352
0.00783885
0.007787
0.00773781
0.0076911
0.00764676
0.00760462
0.00756458
0.00752651
0.00749026
0.0074556
0.00983176
0.00966285
0.00950495
0.00935718
0.00921871
0.00908884
0.00896691
0.00885231
0.00874452
0.00864305
0.00854743
0.00845728
0.00837221
0.00829189
0.00821599
0.00814423
0.00807634
0.00801208
0.00795123
0.00789356
0.0078389
0.00778705
0.00773785
0.00769115
0.00764681
0.00760468
0.00756464
0.00752656
0.00749032
0.00745566
0.00983176
0.00966286
0.00950496
0.00935719
0.00921873
0.00908886
0.00896693
0.00885234
0.00874455
0.00864307
0.00854746
0.00845731
0.00837224
0.00829192
0.00821602
0.00814426
0.00807638
0.00801212
0.00795127
0.00789361
0.00783894
0.0077871
0.0077379
0.00769121
0.00764686
0.00760473
0.00756469
0.00752662
0.00749038
0.00745571
0.00983176
0.00966286
0.00950497
0.0093572
0.00921875
0.00908888
0.00896695
0.00885236
0.00874457
0.0086431
0.00854749
0.00845734
0.00837228
0.00829195
0.00821606
0.0081443
0.00807642
0.00801216
0.00795131
0.00789365
0.00783899
0.00778715
0.00773795
0.00769126
0.00764691
0.00760478
0.00756475
0.00752668
0.00749043
0.00745577
0.00983177
0.00966287
0.00950498
0.00935722
0.00921876
0.0090889
0.00896697
0.00885238
0.0087446
0.00864313
0.00854752
0.00845737
0.00837231
0.00829199
0.00821609
0.00814434
0.00807646
0.00801221
0.00795136
0.0078937
0.00783904
0.00778719
0.007738
0.00769131
0.00764696
0.00760484
0.0075648
0.00752673
0.00749049
0.00745583
0.00983177
0.00966288
0.00950499
0.00935723
0.00921878
0.00908892
0.00896699
0.00885241
0.00874462
0.00864316
0.00854755
0.00845741
0.00837234
0.00829202
0.00821613
0.00814438
0.0080765
0.00801225
0.0079514
0.00789374
0.00783908
0.00778724
0.00773805
0.00769136
0.00764702
0.00760489
0.00756486
0.00752679
0.00749055
0.00745589
0.00983177
0.00966289
0.00950501
0.00935724
0.0092188
0.00908894
0.00896701
0.00885243
0.00874465
0.00864318
0.00854758
0.00845744
0.00837238
0.00829206
0.00821617
0.00814442
0.00807654
0.0080123
0.00795145
0.00789379
0.00783913
0.00778729
0.0077381
0.00769141
0.00764707
0.00760494
0.00756491
0.00752684
0.0074906
0.00745594
0.00983178
0.00966289
0.00950502
0.00935726
0.00921881
0.00908896
0.00896704
0.00885246
0.00874468
0.00864322
0.00854762
0.00845747
0.00837242
0.0082921
0.00821621
0.00814446
0.00807659
0.00801234
0.00795149
0.00789384
0.00783918
0.00778734
0.00773815
0.00769146
0.00764712
0.007605
0.00756496
0.0075269
0.00749065
0.007456
0.00983178
0.0096629
0.00950503
0.00935727
0.00921883
0.00908898
0.00896706
0.00885249
0.00874471
0.00864325
0.00854765
0.00845751
0.00837245
0.00829214
0.00821625
0.00814451
0.00807663
0.00801239
0.00795154
0.00789389
0.00783923
0.00778739
0.0077382
0.00769151
0.00764717
0.00760505
0.00756502
0.00752695
0.00749071
0.00745605
0.00983179
0.00966291
0.00950504
0.00935729
0.00921885
0.009089
0.00896709
0.00885251
0.00874474
0.00864328
0.00854769
0.00845755
0.00837249
0.00829218
0.0082163
0.00814455
0.00807668
0.00801243
0.00795159
0.00789393
0.00783928
0.00778744