/*--------------------------------*- C++ -*----------------------------------*\
| =========                 |                                                 |
| \\      /  F ield         | OpenFOAM: The Open Source CFD Toolbox           |
|  \\    /   O peration     | Version:  2.2.0                                 |
|   \\  /    A nd           | Web:      www.OpenFOAM.org                      |
|    \\/     M anipulation  |                                                 |
\*---------------------------------------------------------------------------*/
FoamFile
{
    version     2.0;
    format      ascii;
    class       volScalarField;
    location    "1000";
    object      k;
}
// * * * * * * * * * * * * * * * * * * * * * * * * * * * * * * * * * * * * * //

dimensions      [0 2 -2 0 0 0 0];

internalField   nonuniform List<scalar> 
7600
(
0.000515873
0.000833371
0.00115098
0.00144455
0.00170149
0.00191406
0.0020776
0.00219067
0.00225534
0.00227741
0.00226701
0.00224009
0.0022333
0.00227495
0.00239464
0.00262315
0.00296586
0.00337278
0.00374654
0.00405377
0.00450594
0.00541075
0.00651763
0.0073338
0.00771804
0.00767057
0.00727886
0.00667205
0.00596787
0.00531262
0.00470846
0.00414898
0.00363174
0.00315418
0.00271394
0.00230998
0.00194334
0.00161393
0.00129586
0.0009125
0.000918662
0.00179908
0.00251638
0.00309584
0.00356087
0.00391776
0.00417136
0.00432953
0.00440508
0.00441702
0.00439211
0.00436805
0.00440785
0.00457397
0.0049375
0.00555934
0.00644792
0.00750326
0.00852354
0.00941768
0.0105491
0.0123521
0.0142665
0.0155389
0.015912
0.0154363
0.014343
0.0129357
0.0114687
0.0100893
0.00885988
0.00777658
0.00682022
0.00596937
0.00520673
0.00452268
0.00391696
0.00338319
0.00280164
0.00144942
0.00129748
0.0025576
0.00351565
0.00424897
0.00481288
0.0052295
0.00551392
0.00568227
0.0057559
0.00576367
0.0057442
0.00575006
0.00586338
0.00616059
0.00672605
0.00762802
0.00886732
0.0103043
0.0116676
0.012836
0.0142534
0.0163672
0.0186059
0.0200736
0.020419
0.0197004
0.0182165
0.0163676
0.0144947
0.0127838
0.011296
0.010009
0.00888419
0.00788568
0.00698769
0.00617782
0.00545352
0.00478973
0.00401463
0.00198871
0.00166958
0.00328428
0.0044475
0.0053021
0.00593394
0.00638207
0.00667359
0.00683437
0.00689505
0.00689476
0.00688436
0.00693158
0.00713512
0.00758032
0.00835909
0.00953884
0.0111007
0.0128542
0.0144642
0.0158232
0.0174522
0.0197531
0.0220611
0.0235808
0.0238355
0.0228853
0.0210696
0.0188507
0.0166384
0.0146584
0.0129766
0.0115524
0.0103278
0.00925195
0.00829029
0.00742519
0.00664583
0.00590731
0.00501022
0.00249585
0.002049
0.00401183
0.00535841
0.00631981
0.00701133
0.00748642
0.00778249
0.00793491
0.00798433
0.00798147
0.0079912
0.00809931
0.00841838
0.00904267
0.0100686
0.0115533
0.0134398
0.0154662
0.0172414
0.018719
0.0205506
0.0229373
0.0251339
0.0265436
0.0266783
0.025522
0.0234264
0.020878
0.0183423
0.0160971
0.014229
0.0126811
0.0113767
0.0102501
0.00925712
0.00837282
0.0075757
0.00680603
0.00584676
0.00295869
0.0024443
0.00475838
0.00627353
0.00732991
0.00807543
0.00857715
0.00888137
0.00903207
0.00907995
0.00908835
0.0091383
0.00933807
0.00980689
0.0106523
0.0119696
0.0137906
0.0159948
0.0182248
0.0200428
0.0216213
0.0236116
0.0259492
0.0278685
0.02898
0.0289721
0.0276857
0.0254127
0.0226098
0.019772
0.0172506
0.0151853
0.0135097
0.0121285
0.0109614
0.00995366
0.00907187
0.0082843
0.00752182
0.00655431
0.00337491
0.00286391
0.0055469
0.00722276
0.0083658
0.00916092
0.00968948
0.0100064
0.010164
0.0102234
0.010262
0.0103788
0.0107071
0.0113713
0.0124871
0.0141403
0.016313
0.0187874
0.021069
0.0228458
0.0245041
0.0265483
0.0286545
0.0301305
0.0308012
0.0305896
0.0293129
0.0270494
0.0241443
0.0210599
0.01824
0.0159461
0.0141212
0.0126531
0.011445
0.0104306
0.00956635
0.00881164
0.00809096
0.00716128
0.00374651
0.00331613
0.00640195
0.00823951
0.00946706
0.0103113
0.010869
0.0112042
0.0113784
0.0114644
0.0115551
0.011771
0.012272
0.0131806
0.0146133
0.0166299
0.0191229
0.0217071
0.0238741
0.0255782
0.0272397
0.0291625
0.0308218
0.0317129
0.0318982
0.0314429
0.030307
0.0283318
0.0255943
0.0224004
0.0192568
0.0166572
0.0146259
0.0130364
0.0117714
0.0107478
0.00990964
0.0092066
0.00855663
0.00770104
0.00408012
0.00380967
0.00735012
0.00936079
0.0106792
0.0115786
0.0121724
0.0125349
0.0127377
0.0128674
0.0130357
0.0133876
0.0141061
0.0153008
0.0170734
0.019432
0.0220697
0.0245417
0.0265188
0.0280812
0.0296008
0.0311666
0.0321761
0.0324215
0.0321967
0.0316261
0.0306788
0.0292351
0.0270681
0.0240814
0.0206616
0.0175841
0.0152145
0.0134186
0.0120483
0.0109932
0.0101768
0.00953443
0.00897358
0.0082149
0.0043873
0.00435394
0.00842064
0.0106279
0.012054
0.0130235
0.0136677
0.0140717
0.0143192
0.0145132
0.0147883
0.0153202
0.0162793
0.0177724
0.019847
0.0223312
0.0248881
0.027114
0.0288063
0.0301046
0.0312732
0.032231
0.032479
0.0321674
0.0317469
0.0312975
0.0307213
0.0298586
0.0284876
0.0263123
0.0229401
0.0192023
0.0162305
0.0140402
0.0124504
0.0113005
0.0104751
0.00988258
0.00941162
0.00875399
0.00468473
0.00496018
0.0096452
0.0120867
0.013649
0.0147139
0.0154313
0.0158981
0.0162115
0.0164926
0.0169029
0.0176527
0.0188195
0.020501
0.0226571
0.0250579
0.0273435
0.0291813
0.0304624
0.0313226
0.0319076
0.0320813
0.0316425
0.0310501
0.0307433
0.0306637
0.0306341
0.030462
0.0299207
0.0286931
0.0263546
0.0224422
0.0183174
0.0153218
0.0132626
0.0118734
0.0109572
0.0103687
0.00996056
0.0093819
0.00499433
0.0056459
0.0110559
0.0137855
0.0155254
0.0167213
0.0175426
0.0180989
0.0185012
0.0188876
0.0194317
0.0202979
0.0215373
0.0232172
0.0252349
0.0273252
0.0291489
0.0304478
0.0311649
0.0314009
0.0312384
0.0306477
0.0298338
0.0293542
0.0294362
0.0298714
0.0304531
0.031006
0.0313372
0.0311562
0.0300145
0.0273062
0.0225769
0.0180336
0.0149852
0.0130437
0.0118537
0.0111582
0.0107396
0.0101781
0.00534421
0.00645748
0.0126767
0.0157562
0.0177249
0.0190943
0.0200533
0.0207214
0.0212171
0.0216838
0.0222865
0.0230695
0.0241753
0.0256188
0.027256
0.0288163
0.0300024
0.0306186
0.030636
0.0301416
0.0292618
0.0281972
0.0274605
0.0274155
0.0280003
0.0289453
0.0300737
0.0312597
0.0323758
0.0332156
0.0334024
0.0323145
0.0291762
0.0235847
0.0186291
0.0154435
0.0135666
0.0125195
0.0119302
0.0112557
0.00576932
0.00733207
0.0145014
0.0180118
0.020267
0.0218506
0.0229678
0.0237414
0.0242871
0.0247343
0.0251337
0.0256474
0.0263981
0.0273713
0.0284083
0.0292575
0.0296746
0.0295217
0.0288089
0.0276696
0.0263592
0.0252825
0.0249789
0.0254693
0.0265113
0.0278685
0.0294076
0.0310455
0.0327175
0.034325
0.035653
0.0362583
0.0353933
0.0321068
0.0258644
0.0204872
0.0169624
0.0149846
0.0138535
0.0127905
0.00631944
0.00823395
0.0164878
0.0204945
0.0230779
0.0248931
0.0261552
0.0269758
0.0274488
0.0276085
0.0276309
0.0276944
0.0278961
0.0282113
0.028493
0.0285311
0.0281462
0.0272699
0.0259795
0.0244937
0.0231725
0.0224567
0.0226851
0.0236288
0.0250224
0.0266924
0.0285207
0.0304339
0.032395
0.034378
0.0363356
0.0380989
0.0392561
0.0390191
0.0362165
0.0298586
0.0238242
0.0198101
0.0172802
0.0151942
0.00705114
0.00909401
0.0184984
0.0230158
0.0259219
0.0279303
0.0292565
0.0299625
0.0301174
0.0298939
0.0294585
0.0289612
0.0284953
0.0280552
0.0275353
0.0267885
0.0257122
0.0243161
0.0227471
0.0212745
0.0202521
0.0200096
0.0206669
0.0219267
0.023573
0.025508
0.0275867
0.0297099
0.0318272
0.03389
0.0359341
0.0379931
0.0400259
0.0417966
0.0426483
0.0412758
0.0358436
0.0289518
0.0235603
0.0191231
0.00816483
0.00983129
0.0203052
0.0251963
0.0282541
0.0302588
0.0314459
0.0319551
0.0318861
0.0313447
0.0304623
0.0293864
0.0282378
0.0270623
0.0258214
0.024443
0.0228992
0.0212596
0.0196988
0.0184628
0.0178098
0.0179304
0.0188314
0.0202835
0.0221738
0.0243982
0.0267722
0.0291362
0.0315028
0.0336805
0.0356331
0.0374256
0.0391409
0.040898
0.0427238
0.0443323
0.0447192
0.0415217
0.0339981
0.0251733
0.00978568
0.00995857
0.0207702
0.0257674
0.0289177
0.0310134
0.0322873
0.0328245
0.032679
0.0319247
0.0306794
0.0291031
0.027362
0.0255735
0.0237795
0.0219798
0.020198
0.0185227
0.0171018
0.0161012
0.0156569
0.0158569
0.0167131
0.0181224
0.0200809
0.0225462
0.025379
0.0284027
0.0314167
0.0341716
0.0364435
0.0382566
0.0395446
0.0404037
0.0410054
0.0415453
0.0421303
0.0424395
0.0407887
0.0326665
0.0111957
0.00974562
0.0199594
0.0248962
0.0281153
0.0303434
0.0317682
0.032436
0.0323603
0.0315747
0.0301667
0.028292
0.026153
0.0239411
0.021783
0.0197422
0.0178681
0.0162323
0.0149218
0.0140055
0.0135108
0.0134683
0.0139852
0.0151536
0.0170368
0.0196332
0.0228558
0.0265626
0.0305344
0.0344764
0.0380496
0.0409265
0.0428585
0.0437473
0.0435789
0.0423911
0.0402882
0.037302
0.0332112
0.0269492
0.0100162
0.00911545
0.018343
0.0229666
0.0260773
0.0283309
0.0298815
0.0307429
0.0308866
0.0302939
0.0289968
0.0271098
0.0248336
0.022411
0.0200504
0.0178816
0.0159702
0.0143573
0.0130619
0.0120629
0.0112967
0.010749
0.0106556
0.0113769
0.0129213
0.0152876
0.0185228
0.0226491
0.0275806
0.0330537
0.0386087
0.0436594
0.0476304
0.0500939
0.0508223
0.0497552
0.0469286
0.0423888
0.0360769
0.0275471
0.0158599
0.00827211
0.016412
0.0206173
0.0235277
0.0257263
0.027348
0.0283925
0.0288076
0.0285339
0.0275449
0.0258885
0.023717
0.0212752
0.0188302
0.0165883
0.0146389
0.0130125
0.0116791
0.010555
0.00951412
0.00850231
0.00783503
0.00807623
0.00908336
0.0107887
0.0133697
0.0171111
0.022283
0.0289242
0.0366284
0.0445336
0.0515521
0.0567407
0.0595171
0.0596362
0.0571015
0.0520436
0.0445952
0.0346087
0.0218212
0.00742263
0.0146296
0.0184525
0.021163
0.0232804
0.0249306
0.0261133
0.0267711
0.0268247
0.026206
0.0248991
0.0229831
0.0206522
0.0181749
0.0159605
0.0139125
0.0122389
0.0108629
0.00966996
0.00850969
0.007314
0.00643917
0.0065099
0.00717728
0.00831209
0.0100415
0.0127149
0.0169721
0.0235262
0.0325321
0.0431502
0.0536589
0.0622945
0.0679125
0.0699469
0.0682792
0.0630292
0.0543788
0.042297
0.0274902
0.00662078
0.013079
0.0165859
0.0191284
0.0211705
0.0228319
0.0241174
0.024975
0.0253214
0.0250667
0.0241483
0.0225724
0.0204491
0.0180419
0.0157764
0.0136822
0.0119408
0.0105127
0.0092838
0.00811786
0.0070158
0.00630129
0.00627912
0.00677957
0.00768552
0.009009
0.0109205
0.0139834
0.0193428
0.0280786
0.0402431
0.0538327
0.0660035
0.0748653
0.079376
0.0792059
0.0743625
0.0649369
0.0507395
0.0328799
0.00594823
0.0117602
0.0150157
0.0174235
0.0193994
0.0210585
0.0224122
0.0234172
0.0239956
0.0240519
0.0234992
0.0222966
0.0204968
0.0182974
0.0160482
0.0139229
0.0121002
0.0105935
0.00931922
0.0081776
0.00723007
0.00670023
0.00667653
0.00711265
0.0079453
0.00915433
0.0108056
0.0132166
0.0172689
0.0246269
0.0368027
0.0525968
0.0679751
0.0802325
0.0876235
0.0895111
0.0856726
0.0759842
0.0598916
0.038302
0.00535533
0.0106563
0.0137087
0.0160066
0.0179248
0.0195731
0.0209694
0.0220811
0.0228414
0.0231602
0.022943
0.0221208
0.0206952
0.0187895
0.0166695
0.0145635
0.0126735
0.0110721
0.0097278
0.008587
0.00774298
0.00732651
0.007334
0.00776553
0.00858419
0.00976008
0.0113051
0.0134137
0.0167887
0.0230654
0.0343107
0.0505008
0.0684289
0.0840962
0.0946766
0.0991616
0.0969444
0.0875507
0.0698732
0.043988
0.00482903
0.00972859
0.0126123
0.014818
0.0166855
0.0183196
0.0197431
0.0209346
0.0218399
0.0223802
0.0224638
0.0220086
0.0209782
0.0194291
0.0175414
0.0155341
0.0136227
0.0119338
0.0104989
0.00931852
0.0085103
0.00814528
0.00817594
0.00861624
0.00943473
0.0105946
0.0120776
0.0140065
0.0169584
0.0224706
0.0328967
0.0490637
0.0683397
0.086612
0.10062
0.108246
0.108297
0.0998053
0.0808772
0.0501391
0.00436496
0.00894567
0.0116829
0.013806
0.0156263
0.0172435
0.018685
0.0199391
0.0209645
0.0216961
0.0220509
0.0219432
0.0213118
0.0201589
0.0185859
0.0167656
0.0149025
0.0131596
0.0116304
0.0103755
0.00954424
0.00917944
0.00921434
0.00963994
0.0104346
0.0115593
0.0129837
0.0147962
0.0175004
0.0225346
0.0323161
0.0482233
0.0683345
0.0887223
0.105783
0.116852
0.11986
0.112953
0.0933772
0.0569386
0.00396061
0.0082828
0.0108856
0.0129297
0.014703
0.0163014
0.0177558
0.0190634
0.020195
0.0210991
0.0217037
0.0219255
0.0216878
0.0209515
0.0197498
0.0181944
0.0164557
0.0147097
0.0130998
0.0117473
0.0108443
0.0104314
0.0104431
0.0108086
0.0115417
0.0126063
0.0139776
0.0157488
0.018411
0.0233276
0.0327808
0.0483284
0.068784
0.0908201
0.110766
0.12537
0.131762
0.127119
0.107241
0.0645248
0.00361428
0.0077213
0.0101951
0.0121596
0.013885
0.0154638
0.0169306
0.0182897
0.019523
0.0205908
0.0214324
0.0219687
0.0221138
0.0217971
0.0209956
0.0197576
0.0182056
0.0165076
0.0148394
0.0133773
0.0123656
0.011864
0.0117961
0.0120853
0.0127474
0.0137638
0.0151433
0.0170347
0.0199837
0.0252768
0.0348426
0.0500657
0.0704303
0.0935496
0.116066
0.134282
0.144396
0.142452
0.122851
0.0731432
0.00332488
0.00724813
0.00959432
0.0114774
0.0131546
0.014716
0.0161991
0.0176142
0.0189518
0.0201818
0.0212522
0.0220879
0.0225964
0.0226829
0.0222793
0.0213763
0.0200453
0.0184323
0.016731
0.0151648
0.0140365
0.0134396
0.013297
0.0135452
0.0141808
0.0152532
0.0168484
0.0192321
0.0230311
0.0293351
0.0394673
0.0544283
0.0743031
0.097859
0.122436
0.144146
0.158251
0.159436
0.140246
0.0830588
0.0030921
0.00685548
0.00907382
0.0108748
0.012506
0.014056
0.0155636
0.0170433
0.0184908
0.0198822
0.0211705
0.0222825
0.0231202
0.0235706
0.0235313
0.022947
0.0218442
0.0203444
0.0186506
0.0170283
0.0158409
0.0152218
0.0151085
0.0154702
0.0162827
0.0177529
0.0201087
0.0237402
0.0291957
0.0370769
0.0479873
0.0626086
0.0815819
0.104865
0.130809
0.155674
0.173875
0.178553
0.15998
0.0942977
0.00291631
0.00653996
0.0086309
0.0103518
0.011943
0.0134903
0.0150321
0.016584
0.0181429
0.0196868
0.0211704
0.0225208
0.0236367
0.0243938
0.024668
0.0243743
0.023508
0.0221727
0.0205813
0.0190441
0.0179876
0.0175895
0.0178332
0.0187445
0.0203956
0.0230944
0.0272957
0.0332153
0.0409167
0.0503728
0.0617417
0.0756633
0.0932725
0.115577
0.142104
0.169622
0.191881
0.200331
0.182468
0.107054
0.00279888
0.00630183
0.00826726
0.0099134
0.0114723
0.013025
0.0146067
0.0162301
0.0178901
0.0195636
0.0212064
0.0227485
0.0240913
0.0251095
0.0256727
0.0256847
0.0251283
0.0241038
0.0228484
0.0217481
0.0213197
0.0217988
0.0232639
0.0258287
0.0296542
0.035042
0.0422003
0.0507303
0.0601924
0.0703326
0.0813248
0.093967
0.109761
0.130514
0.156928
0.186589
0.212837
0.225332
0.208191
0.121552
0.00276128
0.00613116
0.00797939
0.00956021
0.0110913
0.0126511
0.0142687
0.0159523
0.017693
0.0194697
0.021246
0.0229658
0.0245476
0.0258791
0.0268414
0.0273475
0.0273914
0.0271012
0.0267909
0.0270331
0.0284844
0.0313433
0.0356749
0.0414721
0.0487169
0.0575147
0.0671268
0.076962
0.086657
0.0961665
0.105872
0.116728
0.130443
0.149369
0.175266
0.206764
0.237097
0.254074
0.237687
0.138078
0.0028486
0.00603005
0.00776752
0.00927363
0.010768
0.0123312
0.0139807
0.0157212
0.0175473
0.0194612
0.0214606
0.02354
0.025668
0.0277582
0.029719
0.0314868
0.0330877
0.0347206
0.0368529
0.040331
0.0456664
0.0524894
0.0605529
0.0696069
0.0795533
0.0899401
0.0998088
0.108967
0.11738
0.12525
0.133111
0.141994
0.153688
0.17089
0.196277
0.229681
0.264584
0.286908
0.271551
0.15702
0.00300492
0.00597521
0.00760727
0.00903819
0.0104874
0.0120356
0.0137405
0.0156645
0.0178122
0.0203051
0.0232664
0.0268593
0.0311512
0.0359395
0.0410198
0.046195
0.0513839
0.0567415
0.0627502
0.070235
0.0790931
0.0884336
0.0980794
0.107957
0.118013
0.127045
0.135081
0.142161
0.148432
0.154213
0.160106
0.167153
0.17716
0.193039
0.218264
0.254021
0.294507
0.32381
0.310449
0.178961
0.00318771
0.00591738
0.00744846
0.00882697
0.0102943
0.0120269
0.014262
0.0174069
0.0217646
0.0277872
0.0356244
0.0454551
0.0567631
0.068022
0.078584
0.0879925
0.0961462
0.103334
0.110216
0.117686
0.125652
0.133522
0.141412
0.149343
0.156472
0.162597
0.16784
0.172317
0.176226
0.179926
0.184028
0.189563
0.198318
0.213337
0.238795
0.27743
0.324919
0.363905
0.355083
0.20497
0.00339495
0.00586628
0.00742424
0.00914198
0.0115917
0.0158708
0.0232603
0.0345165
0.0510382
0.0704288
0.0904603
0.109839
0.127104
0.141111
0.151649
0.159003
0.163754
0.166715
0.168892
0.171312
0.174363
0.177903
0.181957
0.185881
0.18921
0.192033
0.194384
0.196343
0.198098
0.200002
0.202651
0.20704
0.214905
0.229319
0.254979
0.296265
0.35154
0.403834
0.406142
0.238027
0.00383567
0.00686541
0.0109905
0.0204698
0.0385705
0.065208
0.0958805
0.126712
0.156409
0.182699
0.203731
0.218869
0.228458
0.233398
0.234839
0.23358
0.230349
0.225931
0.221226
0.217105
0.214349
0.213084
0.212736
0.212587
0.212551
0.212526
0.212453
0.212366
0.21243
0.212978
0.214576
0.218157
0.225338
0.239035
0.264045
0.306174
0.367484
0.437132
0.470289
0.292452
0.00904476
0.0263108
0.0619677
0.121562
0.195684
0.245208
0.276345
0.293889
0.301876
0.303949
0.302818
0.300101
0.296384
0.291745
0.28577
0.278558
0.270351
0.261554
0.252777
0.24465
0.238175
0.233558
0.229947
0.227102
0.224784
0.222812
0.221091
0.219637
0.218603
0.218306
0.219271
0.222345
0.228956
0.241658
0.264946
0.305167
0.368599
0.457635
0.550686
0.370277
0.096734
0.0934086
0.0905127
0.0879608
0.0856944
0.0836692
0.0818508
0.0802114
0.0787282
0.0773819
0.0761564
0.0750377
0.074014
0.0730749
0.0722114
0.0714158
0.0706811
0.0700013
0.0693712
0.068786
0.0682415
0.067734
0.0672601
0.0668168
0.0664014
0.0660113
0.0656438
0.0652966
0.0649654
0.064623
0.0975192
0.0941049
0.0906323
0.087299
0.0841857
0.0813196
0.0787016
0.07632
0.0741575
0.0721949
0.0704131
0.0687939
0.0673206
0.065978
0.0647526
0.0636322
0.0626061
0.0616646
0.0607994
0.0600029
0.0592687
0.0585908
0.0579641
0.0573843
0.0568476
0.0563507
0.055891
0.0554655
0.0550726
0.054696
0.0985248
0.0965077
0.0943325
0.0921215
0.0899464
0.0878487
0.0858513
0.0839651
0.082194
0.0805369
0.0789902
0.0775486
0.0762061
0.074956
0.0737921
0.072708
0.0716978
0.0707559
0.0698769
0.0690561
0.0682891
0.0675716
0.0669001
0.0662711
0.0656815
0.0651275
0.0646066
0.0641158
0.0636518
0.0632053
0.0988774
0.0974479
0.0959084
0.0943209
0.0927281
0.0911593
0.0896337
0.0881634
0.0867558
0.0854145
0.0841408
0.0829342
0.0817931
0.0807155
0.0796984
0.0787392
0.0778347
0.0769818
0.0761776
0.0754191
0.0747036
0.0740284
0.0733909
0.0727888
0.0722197
0.0716817
0.0711724
0.0706899
0.0702323
0.0697959
0.0990237
0.0978672
0.0966507
0.0954027
0.0941471
0.0929018
0.09168
0.0904911
0.0893412
0.0882343
0.0871728
0.0861576
0.0851886
0.0842654
0.0833868
0.0825514
0.0817577
0.081004
0.0802883
0.079609
0.0789642
0.0783522
0.0777712
0.0772195
0.0766955
0.0761976
0.0757244
0.0752741
0.0748454
0.0744354
0.0990872
0.0980668
0.0970262
0.0959744
0.0949227
0.0938809
0.0928571
0.0918575
0.0908865
0.0899472
0.0890417
0.0881709
0.0873355
0.0865352
0.0857697
0.0850382
0.0843398
0.0836735
0.083038
0.0824322
0.0818548
0.0813046
0.0807803
0.0802807
0.0798046
0.0793509
0.0789183
0.0785057
0.0781119
0.0777345
0.0991145
0.0981617
0.0972181
0.0962825
0.0953574
0.0944469
0.0935549
0.0926847
0.091839
0.0910197
0.0902282
0.0894652
0.0887312
0.088026
0.0873495
0.0867011
0.0860802
0.0854861
0.0849179
0.0843748
0.0838557
0.0833598
0.0828861
0.0824336
0.0820014
0.0815886
0.0811943
0.0808176
0.0804573
0.0801114
0.0991258
0.0982055
0.0973139
0.0964455
0.0955984
0.0947724
0.0939681
0.0931866
0.0924289
0.0916957
0.0909875
0.0903046
0.0896471
0.0890148
0.0884074
0.0878245
0.0872654
0.0867295
0.0862162
0.0857247
0.0852542
0.084804
0.0843733
0.0839612
0.0835671
0.0831902
0.0828297
0.0824848
0.0821546
0.0818371
0.0991303
0.0982248
0.0973596
0.0965285
0.0957275
0.0949541
0.0942069
0.0934851
0.0927882
0.0921158
0.0914679
0.0908439
0.0902436
0.0896665
0.0891121
0.0885799
0.0880693
0.0875797
0.0871104
0.0866606
0.0862298
0.0858173
0.0854222
0.085044
0.084682
0.0843355
0.0840038
0.0836862
0.083382
0.0830891
0.099132
0.098233
0.0973804
0.0965687
0.0957935
0.0950512
0.0943394
0.0936561
0.0929997
0.0923692
0.0917634
0.0911817
0.0906231
0.0900869
0.0895724
0.0890789
0.0886057
0.088152
0.0877173
0.0873007
0.0869017
0.0865194
0.0861534
0.0858029
0.0854672
0.0851459
0.0848382
0.0845436
0.0842612
0.0839892
0.0991326
0.0982362
0.0973894
0.0965872
0.0958254
0.0951005
0.0944094
0.0937495
0.0931189
0.0925156
0.0919382
0.0913855
0.0908562
0.0903492
0.0898638
0.0893988
0.0889535
0.0885271
0.0881188
0.0877278
0.0873535
0.0869951
0.086652
0.0863236
0.0860092
0.0857082
0.0854201
0.0851442
0.0848797
0.0846249
0.0991328
0.0982375
0.097393
0.0965952
0.0958401
0.0951241
0.0944443
0.0937979
0.0931825
0.092596
0.0920367
0.0915028
0.0909931
0.0905061
0.0900407
0.0895959
0.0891707
0.088764
0.0883752
0.0880033
0.0876476
0.0873073
0.0869818
0.0866704
0.0863725
0.0860875
0.0858147
0.0855537
0.0853035
0.0850625
0.0991328
0.0982379
0.0973945
0.0965985
0.0958464
0.0951348
0.0944608
0.0938215
0.0932146
0.0926378
0.0920892
0.0915669
0.0910694
0.0905953
0.0901432
0.0897118
0.0893002
0.0889073
0.088532
0.0881736
0.0878313
0.0875042
0.0871916
0.0868928
0.0866072
0.0863341
0.086073
0.0858233
0.0855841
0.0853538
0.0991328
0.0982381
0.097395
0.0965997
0.0958489
0.0951394
0.0944681
0.0938324
0.0932299
0.0926583
0.0921156
0.0916
0.0911098
0.0906433
0.0901994
0.0897765
0.0893736
0.0889896
0.0886234
0.0882741
0.0879408
0.0876227
0.0873191
0.0870292
0.0867523
0.0864878
0.0862351
0.0859936
0.0857624
0.08554
0.0991328
0.0982381
0.0973951
0.0966002
0.0958499
0.0951411
0.0944711
0.0938371
0.0932367
0.0926677
0.0921282
0.0916161
0.0911298
0.0906678
0.0902285
0.0898106
0.089413
0.0890344
0.0886738
0.0883302
0.0880028
0.0876906
0.0873928
0.0871088
0.0868378
0.0865791
0.0863322
0.0860963
0.0858707
0.0856538
0.0991328
0.0982381
0.0973952
0.0966003
0.0958502
0.0951418
0.0944722
0.093839
0.0932395
0.0926718
0.0921337
0.0916234
0.0911392
0.0906794
0.0902427
0.0898276
0.0894329
0.0890574
0.0887001
0.0883599
0.088036
0.0877273
0.0874332
0.0871529
0.0868855
0.0866306
0.0863873
0.0861552
0.0859332
0.08572
0.0991328
0.0982381
0.0973952
0.0966003
0.0958503
0.095142
0.0944726
0.0938396
0.0932406
0.0926734
0.092136
0.0916266
0.0911433
0.0906847
0.0902492
0.0898355
0.0894424
0.0890686
0.0887131
0.0883748
0.0880528
0.0877462
0.0874542
0.087176
0.0869108
0.0866581
0.0864171
0.0861871
0.0859674
0.0857564
0.0991328
0.0982381
0.0973952
0.0966003
0.0958503
0.095142
0.0944728
0.0938399
0.093241
0.092674
0.0921369
0.0916278
0.091145
0.0906869
0.090252
0.089839
0.0894466
0.0890737
0.0887191
0.0883818
0.0880608
0.0877553
0.0874644
0.0871874
0.0869235
0.086672
0.0864323
0.0862036
0.0859852
0.0857755
0.0991328
0.0982381
0.0973952
0.0966003
0.0958503
0.0951421
0.0944728
0.0938399
0.0932411
0.0926742
0.0921372
0.0916282
0.0911456
0.0906877
0.0902531
0.0898405
0.0894484
0.0890759
0.0887217
0.0883849
0.0880644
0.0877595
0.0874692
0.0871928
0.0869295
0.0866787
0.0864396
0.0862116
0.0859939
0.085785
0.0991328
0.0982381
0.0973952
0.0966003
0.0958503
0.0951421
0.0944728
0.0938399
0.0932411
0.0926743
0.0921373
0.0916284
0.0911458
0.090688
0.0902536
0.089841
0.0894492
0.0890768
0.0887228
0.0883862
0.088066
0.0877613
0.0874713
0.0871952
0.0869322
0.0866817
0.086443
0.0862154
0.0859981
0.0857895
0.0991328
0.0982381
0.0973952
0.0966004
0.0958503
0.0951421
0.0944728
0.0938399
0.0932412
0.0926743
0.0921373
0.0916284
0.0911459
0.0906882
0.0902537
0.0898413
0.0894495
0.0890772
0.0887233
0.0883868
0.0880667
0.0877622
0.0874723
0.0871963
0.0869335
0.0866831
0.0864446
0.0862171
0.086
0.0857916
0.0991328
0.0982381
0.0973952
0.0966004
0.0958504
0.0951421
0.0944728
0.09384
0.0932412
0.0926743
0.0921374
0.0916285
0.091146
0.0906883
0.0902538
0.0898414
0.0894496
0.0890774
0.0887235
0.0883871
0.0880671
0.0877626
0.0874727
0.0871968
0.0869341
0.0866838
0.0864453
0.086218
0.0860009
0.0857926
0.0991328
0.0982381
0.0973952
0.0966004
0.0958504
0.0951421
0.0944729
0.09384
0.0932412
0.0926744
0.0921374
0.0916286
0.0911461
0.0906883
0.0902539
0.0898415
0.0894498
0.0890775
0.0887237
0.0883873
0.0880673
0.0877628
0.087473
0.0871972
0.0869344
0.0866842
0.0864458
0.0862185
0.0860014
0.0857931
0.0991328
0.0982382
0.0973953
0.0966005
0.0958505
0.0951422
0.0944729
0.0938401
0.0932413
0.0926744
0.0921375
0.0916286
0.0911461
0.0906884
0.0902541
0.0898416
0.0894499
0.0890777
0.0887239
0.0883875
0.0880675
0.087763
0.0874733
0.0871974
0.0869347
0.0866845
0.0864461
0.0862188
0.0860018
0.0857935
0.0991328
0.0982382
0.0973953
0.0966005
0.0958505
0.0951423
0.094473
0.0938401
0.0932414
0.0926745
0.0921376
0.0916287
0.0911462
0.0906886
0.0902542
0.0898418
0.0894501
0.0890779
0.0887241
0.0883877
0.0880677
0.0877633
0.0874735
0.0871977
0.086935
0.0866848
0.0864464
0.0862191
0.0860021
0.0857939
0.0991328
0.0982382
0.0973953
0.0966006
0.0958506
0.0951423
0.0944731
0.0938402
0.0932415
0.0926746
0.0921377
0.0916289
0.0911464
0.0906887
0.0902543
0.0898419
0.0894502
0.089078
0.0887243
0.0883879
0.0880679
0.0877635
0.0874738
0.0871979
0.0869353
0.0866851
0.0864467
0.0862194
0.0860024
0.0857942
0.0991328
0.0982382
0.0973954
0.0966006
0.0958506
0.0951424
0.0944732
0.0938403
0.0932416
0.0926747
0.0921378
0.091629
0.0911465
0.0906888
0.0902545
0.0898421
0.0894504
0.0890782
0.0887245
0.0883881
0.0880682
0.0877637
0.087474
0.0871982
0.0869356
0.0866854
0.086447
0.0862197
0.0860028
0.0857945
0.0991328
0.0982383
0.0973954
0.0966007
0.0958507
0.0951425
0.0944732
0.0938404
0.0932417
0.0926749
0.092138
0.0916291
0.0911467
0.090689
0.0902547
0.0898423
0.0894506
0.0890784
0.0887247
0.0883883
0.0880684
0.087764
0.0874743
0.0871985
0.0869358
0.0866857
0.0864473
0.0862201
0.0860031
0.0857949
0.0991328
0.0982383
0.0973955
0.0966007
0.0958508
0.0951426
0.0944733
0.0938405
0.0932418
0.092675
0.0921381
0.0916293
0.0911468
0.0906892
0.0902549
0.0898425
0.0894508
0.0890787
0.0887249
0.0883886
0.0880687
0.0877643
0.0874746
0.0871988
0.0869361
0.086686
0.0864476
0.0862204
0.0860034
0.0857952
0.0991329
0.0982383
0.0973955
0.0966008
0.0958509
0.0951427
0.0944734
0.0938406
0.0932419
0.0926751
0.0921382
0.0916294
0.091147
0.0906894
0.0902551
0.0898427
0.089451
0.0890789
0.0887252
0.0883888
0.0880689
0.0877645
0.0874749
0.0871991
0.0869364
0.0866863
0.0864479
0.0862207
0.0860037
0.0857955
0.0991329
0.0982384
0.0973956
0.0966009
0.0958509
0.0951428
0.0944736
0.0938408
0.0932421
0.0926753
0.0921384
0.0916296
0.0911472
0.0906896
0.0902553
0.0898429
0.0894513
0.0890791
0.0887254
0.0883891
0.0880692
0.0877648
0.0874751
0.0871994
0.0869367
0.0866866
0.0864483
0.086221
0.0860041
0.0857959
0.0991329
0.0982384
0.0973956
0.0966009
0.095851
0.0951429
0.0944737
0.0938409
0.0932422
0.0926754
0.0921386
0.0916298
0.0911474
0.0906898
0.0902555
0.0898431
0.0894515
0.0890794
0.0887257
0.0883894
0.0880695
0.0877651
0.0874754
0.0871997
0.086937
0.0866869
0.0864486
0.0862213
0.0860044
0.0857962
0.0991329
0.0982384
0.0973957
0.096601
0.0958511
0.095143
0.0944738
0.093841
0.0932423
0.0926756
0.0921387
0.09163
0.0911476
0.09069
0.0902557
0.0898434
0.0894517
0.0890796
0.0887259
0.0883896
0.0880697
0.0877654
0.0874757
0.0871999
0.0869373
0.0866872
0.0864489
0.0862217
0.0860047
0.0857965
0.0991329
0.0982385
0.0973957
0.0966011
0.0958512
0.0951431
0.0944739
0.0938412
0.0932425
0.0926757
0.0921389
0.0916302
0.0911478
0.0906902
0.0902559
0.0898436
0.089452
0.0890799
0.0887262
0.0883899
0.08807
0.0877657
0.087476
0.0872002
0.0869376
0.0866875
0.0864492
0.086222
0.086005
0.0857968
0.0991329
0.0982385
0.0973958
0.0966012
0.0958513
0.0951432
0.094474
0.0938413
0.0932427
0.0926759
0.0921391
0.0916303
0.091148
0.0906904
0.0902561
0.0898438
0.0894522
0.0890801
0.0887264
0.0883901
0.0880703
0.0877659
0.0874763
0.0872005
0.0869379
0.0866878
0.0864495
0.0862223
0.0860053
0.0857971
0.099133
0.0982386
0.0973959
0.0966012
0.0958514
0.0951433
0.0944742
0.0938415
0.0932428
0.0926761
0.0921393
0.0916305
0.0911482
0.0906906
0.0902564
0.0898441
0.0894525
0.0890804
0.0887267
0.0883904
0.0880706
0.0877662
0.0874766
0.0872008
0.0869382
0.0866881
0.0864498
0.0862226
0.0860056
0.0857975
0.099133
0.0982386
0.0973959
0.0966013
0.0958515
0.0951434
0.0944743
0.0938416
0.093243
0.0926763
0.0921395
0.0916307
0.0911484
0.0906908
0.0902566
0.0898443
0.0894527
0.0890806
0.088727
0.0883907
0.0880708
0.0877665
0.0874769
0.0872011
0.0869385
0.0866884
0.0864501
0.0862229
0.0860059
0.0857978
0.099133
0.0982386
0.097396
0.0966014
0.0958516
0.0951435
0.0944744
0.0938418
0.0932431
0.0926764
0.0921397
0.091631
0.0911486
0.0906911
0.0902568
0.0898445
0.089453
0.0890809
0.0887272
0.088391
0.0880711
0.0877668
0.0874771
0.0872014
0.0869388
0.0866887
0.0864504
0.0862232
0.0860062
0.0857981
0.099133
0.0982387
0.0973961
0.0966015
0.0958517
0.0951437
0.0944746
0.0938419
0.0932433
0.0926766
0.0921399
0.0916312
0.0911488
0.0906913
0.0902571
0.0898448
0.0894532
0.0890812
0.0887275
0.0883912
0.0880714
0.0877671
0.0874774
0.0872017
0.0869391
0.086689
0.0864507
0.0862235
0.0860065
0.0857984
0.099133
0.0982387
0.0973961
0.0966016
0.0958518
0.0951438
0.0944747
0.0938421
0.0932435
0.0926768
0.0921401
0.0916314
0.0911491
0.0906915
0.0902573
0.0898451
0.0894535
0.0890814
0.0887278
0.0883915
0.0880717
0.0877674
0.0874777
0.087202
0.0869394
0.0866893
0.086451
0.0862238
0.0860068
0.0857987
0.0991331
0.0982388
0.0973962
0.0966017
0.095852
0.0951439
0.0944749
0.0938423
0.0932437
0.092677
0.0921403
0.0916316
0.0911493
0.0906918
0.0902576
0.0898453
0.0894538
0.0890817
0.0887281
0.0883918
0.088072
0.0877676
0.087478
0.0872023
0.0869397
0.0866896
0.0864513
0.0862241
0.0860071
0.085799
0.0991331
0.0982388
0.0973963
0.0966018
0.0958521
0.0951441
0.0944751
0.0938424
0.0932439
0.0926772
0.0921405
0.0916318
0.0911495
0.090692
0.0902578
0.0898456
0.089454
0.089082
0.0887283
0.0883921
0.0880722
0.0877679
0.0874783
0.0872026
0.08694
0.0866899
0.0864516
0.0862244
0.0860074
0.0857993
0.0991331
0.0982389
0.0973964
0.0966019
0.0958522
0.0951442
0.0944752
0.0938426
0.0932441
0.0926775
0.0921407
0.0916321
0.0911498
0.0906923
0.0902581
0.0898459
0.0894543
0.0890823
0.0887286
0.0883924
0.0880725
0.0877682
0.0874786
0.0872029
0.0869403
0.0866902
0.0864519
0.0862247
0.0860078
0.0857996
0.0991331
0.098239
0.0973965
0.096602
0.0958523
0.0951444
0.0944754
0.0938428
0.0932443
0.0926777
0.092141
0.0916323
0.09115
0.0906925
0.0902584
0.0898461
0.0894546
0.0890826
0.0887289
0.0883927
0.0880729
0.0877685
0.0874789
0.0872032
0.0869406
0.0866905
0.0864522
0.086225
0.0860081
0.0857999
0.0991332
0.098239
0.0973965
0.0966021
0.0958525
0.0951446
0.0944756
0.093843
0.0932445
0.0926779
0.0921412
0.0916326
0.0911503
0.0906928
0.0902587