/*--------------------------------*- C++ -*----------------------------------*\
| =========                 |                                                 |
| \\      /  F ield         | OpenFOAM: The Open Source CFD Toolbox           |
|  \\    /   O peration     | Version:  2.2.0                                 |
|   \\  /    A nd           | Web:      www.OpenFOAM.org                      |
|    \\/     M anipulation  |                                                 |
\*---------------------------------------------------------------------------*/
FoamFile
{
    version     2.0;
    format      ascii;
    class       surfaceScalarField;
    location    "1000";
    object      phi;
}
// * * * * * * * * * * * * * * * * * * * * * * * * * * * * * * * * * * * * * //

dimensions      [1 0 -1 0 0 0 0];

internalField   nonuniform List<scalar> 
15000
(
1.56075e-05
-1.56075e-05
3.1602e-05
-1.59946e-05
4.77655e-05
-1.61636e-05
6.39429e-05
-1.61773e-05
7.97422e-05
-1.57994e-05
9.47597e-05
-1.50174e-05
0.000108548
-1.37887e-05
0.000120624
-1.20759e-05
0.000130498
-9.8737e-06
0.000137725
-7.22657e-06
0.00014197
-4.24491e-06
0.000143072
-1.10202e-06
0.000140951
2.12141e-06
0.000135649
5.30199e-06
0.000127393
8.2558e-06
0.000116394
1.0998e-05
0.000102438
1.39555e-05
8.44416e-05
1.79959e-05
6.088e-05
2.35602e-05
3.36085e-05
2.72698e-05
1.87007e-05
1.49051e-05
2.94207e-05
-1.07228e-05
6.08217e-05
-3.14043e-05
0.00010225
-4.14312e-05
0.000144533
-4.22854e-05
0.000180564
-3.60334e-05
0.000205866
-2.53038e-05
0.000218914
-1.30498e-05
0.000220574
-1.6617e-06
0.000213196
7.37625e-06
0.000199307
1.38864e-05
0.000180977
1.8329e-05
0.000159842
2.11327e-05
0.000137227
2.26143e-05
0.000114279
2.29465e-05
9.21174e-05
2.21596e-05
7.19168e-05
2.01991e-05
5.451e-05
1.74051e-05
3.83574e-05
1.61507e-05
3.83552e-05
2.07192e-05
-3.63268e-05
3.88753e-05
-3.41507e-05
5.60018e-05
-3.32901e-05
7.2561e-05
-3.27364e-05
8.8595e-05
-3.18332e-05
0.000103863
-3.02853e-05
0.000117961
-2.7886e-05
0.000130389
-2.45045e-05
0.00014061
-2.00944e-05
0.000148095
-1.47111e-05
0.000152389
-8.5391e-06
0.000153145
-1.85814e-06
0.000150093
5.17293e-06
0.000143129
1.22662e-05
0.00013232
1.90639e-05
0.000117692
2.56251e-05
9.88233e-05
3.28225e-05
7.47544e-05
4.20627e-05
4.50891e-05
5.32223e-05
1.4964e-05
5.73916e-05
1.93876e-06
2.7926e-05
1.60294e-05
-2.48173e-05
5.09897e-05
-6.63684e-05
9.62349e-05
-8.66796e-05
0.000142424
-8.84776e-05
0.000182179
-7.57917e-05
0.000210706
-5.38331e-05
0.000226223
-2.85696e-05
0.000229542
-4.98421e-06
0.000223133
1.37827e-05
0.000209708
2.7309e-05
0.000191494
3.65408e-05
0.000170273
4.23512e-05
0.000147465
4.54199e-05
0.000124216
4.61932e-05
0.000101402
4.49708e-05
7.94195e-05
4.21796e-05
5.75992e-05
3.92227e-05
3.2948e-05
4.07989e-05
7.13021e-05
2.14604e-05
-5.77872e-05
4.12578e-05
-5.39481e-05
5.99212e-05
-5.19534e-05
7.76703e-05
-5.04855e-05
9.45502e-05
-4.87131e-05
0.000110402
-4.61374e-05
0.000124902
-4.23859e-05
0.0001376
-3.72024e-05
0.000147966
-3.04603e-05
0.000155442
-2.21869e-05
0.000159506
-1.26028e-05
0.000159676
-2.02832e-06
0.000155545
9.30394e-06
0.000146905
2.09055e-05
0.000133659
3.23101e-05
0.000115581
4.37025e-05
9.20266e-05
5.63761e-05
6.22169e-05
7.18716e-05
2.71244e-05
8.83135e-05
-5.10646e-06
8.96211e-05
-1.65794e-05
3.93973e-05
-2.39594e-07
-4.11587e-05
3.73789e-05
-0.000103988
8.60857e-05
-0.000135388
0.000136149
-0.000138542
0.000179759
-0.000119403
0.000211687
-8.57622e-05
0.000229809
-4.66931e-05
0.000234806
-9.98358e-06
0.000229264
1.93241e-05
0.000216197
4.03739e-05
0.000198096
5.4641e-05
0.000176897
6.35491e-05
0.000154067
6.82484e-05
0.000130663
6.95958e-05
0.000107296
6.83368e-05
8.39305e-05
6.55435e-05
5.96206e-05
6.35313e-05
3.23814e-05
6.80364e-05
0.000103683
2.09821e-05
-7.87693e-05
4.13907e-05
-7.43566e-05
6.11153e-05
-7.1678e-05
8.00134e-05
-6.93835e-05
9.79232e-05
-6.66229e-05
0.000114598
-6.28118e-05
0.000129691
-5.74791e-05
0.000142757
-5.02685e-05
0.000153266
-4.09698e-05
0.00016064
-2.95609e-05
0.000164303
-1.62652e-05
0.000163653
-1.3783e-06
0.000158157
1.47999e-05
0.000147486
3.15762e-05
0.000131307
4.84883e-05
0.000109084
6.59254e-05
7.99618e-05
8.54979e-05
4.35239e-05
0.000108309
2.6099e-06
0.000129227
-3.1664e-05
0.000123894
-4.19416e-05
4.96737e-05
-2.41673e-05
-5.89341e-05
1.56166e-05
-0.000143773
6.79831e-05
-0.000187755
0.000122632
-0.000193193
0.000171156
-0.000167928
0.000207665
-0.000122272
0.000229427
-6.84563e-05
0.000236827
-1.73854e-05
0.00023258
2.35697e-05
0.000220132
5.2821e-05
0.000202326
7.24455e-05
0.000181298
8.45761e-05
0.000158569
9.09766e-05
0.00013511
9.3053e-05
0.000111331
9.21154e-05
8.69873e-05
8.98859e-05
6.11947e-05
8.93227e-05
3.26027e-05
9.66271e-05
0.000136285
2.0137e-05
-9.89063e-05
4.04712e-05
-9.46907e-05
6.05536e-05
-9.17603e-05
8.00645e-05
-8.88944e-05
9.86697e-05
-8.52282e-05
0.000115988
-8.01303e-05
0.00013158
-7.30714e-05
0.000144937
-6.36249e-05
0.000155479
-5.15123e-05
0.000162578
-3.66601e-05
0.000165582
-1.92695e-05
0.000163756
4.47482e-07
0.000156425
2.21311e-05
0.000143082
4.49193e-05
0.000123077
6.84928e-05
9.5514e-05
9.34881e-05
5.9398e-05
0.000121613
1.50045e-05
0.000152702
-3.19071e-05
0.000176138
-6.8252e-05
0.000160238
-7.82306e-05
5.96514e-05
-5.96269e-05
-7.75387e-05
-1.83793e-05
-0.000185022
3.73683e-05
-0.000243504
9.74e-05
-0.000253225
0.000152273
-0.000222802
0.000195183
-0.000165182
0.000222395
-9.56695e-05
0.000233659
-2.86509e-05
0.000231702
2.55251e-05
0.000220544
6.3978e-05
0.000203535
8.94538e-05
0.000183074
0.000105036
0.000160765
0.000113285
0.000137519
0.000116299
0.000113604
0.000116029
8.86998e-05
0.000114789
6.20562e-05
0.000115965
3.27382e-05
0.000125944
0.000169022
1.91206e-05
-0.000118027
3.88186e-05
-0.000114388
5.85932e-05
-0.000111535
7.80526e-05
-0.000108354
9.6759e-05
-0.000103935
0.000114224
-9.75953e-05
0.000129904
-8.87519e-05
0.000143195
-7.69163e-05
0.000153429
-6.1746e-05
0.00015988
-4.31114e-05
0.00016176
-2.11499e-05
0.000158177
4.03065e-06
0.000148276
3.20317e-05
0.00013126
6.1935e-05
0.000106088
9.36649e-05
7.14875e-05
0.000128088
2.64689e-05
0.000166632
-2.68198e-05
0.00020599
-7.97e-05
0.000229017
-0.00011879
0.000199328
-0.000129639
7.04996e-05
-0.000110903
-9.62757e-05
-6.89556e-05
-0.000226971
-1.05845e-05
-0.000301876
5.51931e-05
-0.000319004
0.000118096
-0.000285706
0.00016987
-0.000216958
0.000205275
-0.000131076
0.000222822
-4.61997e-05
0.000224864
2.34818e-05
0.000216144
7.26974e-05
0.000200777
0.000104819
0.000181549
0.000124263
0.000160199
0.000134633
0.000137621
0.000138876
0.000114019
0.000139631
8.90806e-05
0.000139726
6.2217e-05
0.000142828
3.27524e-05
0.000155407
0.000201774
1.78466e-05
-0.000135873
3.63846e-05
-0.000132926
5.51864e-05
-0.000130337
7.38575e-05
-0.000127025
9.19137e-05
-0.000121991
0.000108797
-0.000114479
0.000123879
-0.000103834
0.000136455
-8.94926e-05
0.000145743
-7.10344e-05
0.000150882
-4.82504e-05
0.000150873
-2.11413e-05
0.00014459
1.03139e-05
0.000130939
4.56821e-05
0.000108742
8.41314e-05
7.64864e-05
0.00012592
3.25511e-05
0.000172023
-2.31224e-05
0.000222305
-8.56033e-05
0.00026847
-0.000144737
0.00028815
-0.000187878
0.000242468
-0.000201105
8.37257e-05
-0.000183359
-0.000114023
-0.000141022
-0.000269309
-8.09733e-05
-0.000361925
-1.01548e-05
-0.000389824
6.21907e-05
-0.000358052
0.000125821
-0.00028059
0.000173304
-0.00017856
0.000200965
-7.38617e-05
0.000209838
1.46079e-05
0.000205407
7.71272e-05
0.000193001
0.000117224
0.000176003
0.00014126
0.000156401
0.000154234
0.000135148
0.000160128
0.000112461
0.000162317
8.81058e-05
0.000164081
6.1645e-05
0.000169288
3.25445e-05
0.000184506
0.000234318
1.61585e-05
-0.000152032
3.29392e-05
-0.000149706
5.00317e-05
-0.000147429
6.70707e-05
-0.000144064
8.35634e-05
-0.000138484
9.8915e-05
-0.000129831
0.000112432
-0.000117351
0.000123319
-0.00010038
0.000130666
-7.83815e-05
0.000133431
-5.10158e-05
0.000130299
-1.80094e-05
0.000119831
2.07813e-05
0.000100649
6.48637e-05
7.10806e-05
0.000113699
2.90785e-05
0.000167922
-2.65466e-05
0.000227648
-9.36076e-05
0.000289365
-0.000165495
0.000340357
-0.00023204
0.000354694
-0.000280973
0.000291401
-0.000298509
0.00010126
-0.000283278
-0.000129254
-0.000241343
-0.000311246
-0.000179264
-0.000424005
-0.000104256
-0.000464833
-2.31005e-05
-0.000439209
5.50227e-05
-0.000358714
0.000119563
-0.000243102
0.000163077
-0.000117377
0.000183535
-5.85209e-06
0.000186496
7.41653e-05
0.000179096
0.000124623
0.000165771
0.000154584
0.000148997
0.000171008
0.000129925
0.000179199
0.00010889
0.000183351
8.57954e-05
0.000187175
6.03406e-05
0.000194741
3.20631e-05
0.000212783
0.00026638
1.38613e-05
-0.000165893
2.81305e-05
-0.000163975
4.26238e-05
-0.000161922
5.70132e-05
-0.000158453
7.08144e-05
-0.000152285
8.34152e-05
-0.000142432
9.40729e-05
-0.000128009
0.000101902
-0.000108209
0.00010585
-8.23295e-05
0.000104634
-4.98002e-05
9.6471e-05
-9.84714e-06
7.95931e-05
3.76588e-05
5.22898e-05
9.21666e-05
1.22495e-05
0.000153739
-4.21628e-05
0.000222334
-0.000110523
0.000296008
-0.000189465
0.000368307
-0.000271896
0.000422788
-0.000347438
0.000430235
-0.000404419
0.000348382
-0.00042865
0.00012549
-0.000417822
-0.000140084
-0.000377413
-0.000351656
-0.000313386
-0.000488033
-0.000232954
-0.000545265
-0.000143403
-0.000528761
-5.15156e-05
-0.000450602
3.37645e-05
-0.000328383
0.000100945
-0.000184558
0.00014099
-4.58979e-05
0.000156992
5.81623e-05
0.000157869
0.000123745
0.000150297
0.000162156
0.000137778
0.000183527
0.000121939
0.000195037
0.000103393
0.000201897
8.22529e-05
0.000208313
5.836e-05
0.000218633
3.13022e-05
0.000239839
0.000297682
1.07047e-05
-0.000176597
2.14756e-05
-0.000174745
3.22434e-05
-0.00017269
4.27094e-05
-0.000168919
5.23971e-05
-0.000161973
6.06786e-05
-0.000150713
6.67593e-05
-0.00013409
6.96478e-05
-0.000111098
6.81021e-05
-8.07842e-05
6.0463e-05
-4.21615e-05
4.4371e-05
6.24442e-06
1.79089e-05
6.41205e-05
-2.08993e-05
0.000130974
-7.39584e-05
0.000206798
-0.000142042
0.000290417
-0.000224225
0.00037819
-0.000316328
0.000460409
-0.000410777
0.000517237
-0.000497392
0.000516848
-0.000565174
0.000416164
-0.000598823
0.000159138
-0.000594426
-0.000144482
-0.000556787
-0.000389295
-0.000491233
-0.000553588
-0.00040483
-0.000631669
-0.000304957
-0.000628635
-0.000198873
-0.000556686
-9.3915e-05
-0.000433342
1.71537e-06
-0.000280189
7.42844e-05
-0.000118468
0.000113636
1.88101e-05
0.000128082
0.0001093
0.000129229
0.000161008
0.000122793
0.000189962
0.000111408
0.000206421
9.62267e-05
0.000217078
7.76942e-05
0.000226845
5.58252e-05
0.000240501
3.02922e-05
0.000265371
0.000327973
6.35631e-06
-0.000182953
1.23377e-05
-0.000180726
1.79307e-05
-0.000178283
2.28471e-05
-0.000173835
2.65988e-05
-0.000165724
2.85179e-05
-0.000152632
2.77207e-05
-0.000133293
2.30421e-05
-0.000106419
1.29278e-05
-7.06702e-05
-4.83474e-06
-2.43994e-05
-3.24811e-05
3.38903e-05
-7.16149e-05
0.000103254
-0.000124277
0.000183636
-0.000192114
0.000274634
-0.000275639
0.000373943
-0.000373133
0.000475683
-0.000479851
0.000567127
-0.000588145
0.000625531
-0.00068831
0.000617013
-0.000769883
0.000497737
-0.000815567
0.000204822
-0.000819284
-0.000140766
-0.000785514
-0.000423065
-0.000719302
-0.0006198
-0.000627485
-0.000723486
-0.00051699
-0.000739131
-0.00039479
-0.000678886
-0.000268347
-0.000559786
-0.000146119
-0.000402417
-3.62019e-05
-0.000228385
4.36933e-05
-6.10852e-05
8.50186e-05
6.79743e-05
0.000100827
0.000145199
0.00010353
0.000187257
9.83257e-05
0.000211625
8.75443e-05
0.000227859
7.22553e-05
0.000242133
5.27901e-05
0.000259966
2.90226e-05
0.000289137
0.000356995
3.85614e-07
-0.000183338
-1.55668e-07
-0.000180184
-1.64281e-06
-0.000176795
-4.3871e-06
-0.000171091
-8.91871e-06
-0.000161193
-1.59833e-05
-0.000145568
-2.65973e-05
-0.000122679
-4.2145e-05
-9.08716e-05
-6.45046e-05
-4.83108e-05
-9.60918e-05
7.18752e-06
-0.000138304
7.61023e-05
-0.000192875
0.000157825
-0.0002619
0.000252661
-0.000346742
0.000359475
-0.000447414
0.000474614
-0.000561681
0.000589951
-0.000684589
0.000690034
-0.00080871
0.000749652
-0.000924857
0.00073316
-0.00102268
0.00059556
-0.00108201
0.000264152
-0.00109461
-0.000128164
-0.00106571
-0.000451971
-0.0010007
-0.000684808
-0.000905896
-0.000818291
-0.000787049
-0.000857978
-0.000649958
-0.000815977
-0.000501342
-0.000708402
-0.000349517
-0.000554241
-0.000203933
-0.000373968
-7.57708e-05
-0.000189248
1.39675e-05
-2.17642e-05
5.91266e-05
0.00010004
7.75667e-05
0.000168816
8.17119e-05
0.000207478
7.69427e-05
0.000232627
6.57465e-05
0.000253328
4.91325e-05
0.000276579
2.74179e-05
0.000310851
0.000384413
-7.55915e-06
-0.000175779
-1.67985e-05
-0.000170944
-2.77231e-05
-0.00016587
-4.06992e-05
-0.000158114
-5.63325e-05
-0.000145559
-7.54811e-05
-0.000126419
-9.93166e-05
-9.88433e-05
-0.000129453
-6.07353e-05
-0.000168111
-9.65303e-06
-0.000216664
5.57406e-05
-0.000276092
0.00013553
-0.000348653
0.000230386
-0.000436214
0.000340222
-0.000539814
0.000463075
-0.000659031
0.00059383
-0.000791314
0.000722234
-0.000931707
0.000830427
-0.00107308
0.000891027
-0.0012065
0.000866575
-0.00132111
0.00071017
-0.00139367
0.000336712
-0.00141496
-0.000106867
-0.00139245
-0.000474485
-0.00133231
-0.000744942
-0.00123965
-0.00091096
-0.00111819
-0.000979435
-0.000971666
-0.000962498
-0.000805148
-0.000874919
-0.000625856
-0.000733533
-0.000443365
-0.000556458
-0.000269941
-0.000362671
-0.000120142
-0.000171564
-1.74788e-05
-2.62422e-06
3.40428e-05
0.000117294
5.64516e-05
0.000185069
6.16829e-05
0.000227395
5.65206e-05
0.00025849
4.38091e-05
0.00028929
2.49403e-05
0.000329719
0.000409353
-1.76717e-05
-0.000158107
-3.7987e-05
-0.000150629
-6.09112e-05
-0.000142946
-8.68932e-05
-0.000132132
-0.000116645
-0.000115807
-0.000151174
-9.18901e-05
-0.000191831
-5.8186e-05
-0.000240501
-1.20655e-05
-0.00029822
4.80657e-05
-0.000365579
0.000123099
-0.000444436
0.000214387
-0.000536872
0.000322822
-0.00064448
0.00044783
-0.000767911
0.000586506
-0.000906337
0.000732256
-0.00105696
0.000872862
-0.00121483
0.000988293
-0.00137288
0.00104908
-0.00152198
0.00101567
-0.00165054
0.000838729
-0.0017336
0.000419768
-0.0017631
-7.73675e-05
-0.00174971
-0.000487875
-0.00170031
-0.000794337
-0.001618
-0.00099327
-0.00150381
-0.00109362
-0.00135861
-0.0011077
-0.00118494
-0.00104859
-0.000987896
-0.000930578
-0.000775583
-0.00076877
-0.000559689
-0.000578566
-0.000355085
-0.000376168
-0.000179298
-0.000178413
-5.89386e-05
-3.06624e-06
3.42017e-06
0.000122709
3.15093e-05
0.000199305
3.94737e-05
0.000250525
3.44024e-05
0.00029436
2.07174e-05
0.000343403
0.00043007
-2.985e-05
-0.000128256
-6.36311e-05
-0.000116847
-0.000101146
-0.000105431
-0.000142905
-9.03737e-05
-0.000189752
-6.89601e-05
-0.000242964
-3.86781e-05
-0.00030365
2.50083e-06
-0.000372282
5.65664e-05
-0.000449265
0.000125048
-0.000536205
0.00021004
-0.000635149
0.00031333
-0.000747881
0.000435554
-0.000875559
0.000575508
-0.00101831
0.000729253
-0.00117478
0.00088873
-0.00134179
0.00103988
-0.00151413
0.00116063
-0.00168446
0.00121942
-0.00184333
0.00117454
-0.00197923
0.000974632
-0.00206837
0.000508911
-0.0021057
-4.00378e-05
-0.00210509
-0.000488488
-0.00207386
-0.000825569
-0.00201266
-0.00105446
-0.00191956
-0.00118672
-0.00179193
-0.00123532
-0.00162909
-0.00121144
-0.00143305
-0.00112661
-0.00120886
-0.000992957
-0.000965526
-0.000821904
-0.000715944
-0.00062575
-0.000476648
-0.000417709
-0.000267896
-0.000211819
-0.000121267
-2.39198e-05
-4.06649e-05
0.000118702
-3.00761e-06
0.000212867
1.04104e-05
0.000280942
9.65533e-06
0.000344158
0.000439725
-4.37497e-05
-8.45062e-05
-9.2787e-05
-6.78094e-05
-0.000147181
-5.10366e-05
-0.000207292
-3.02628e-05
-0.000273532
-2.71922e-06
-0.000346128
3.39177e-05
-0.000425379
8.17522e-05
-0.000511596
0.000142783
-0.00060638
0.000219832
-0.000711662
0.000315323
-0.000829209
0.000430877
-0.000960324
0.000566669
-0.00110553
0.000720711
-0.00126421
0.000887932
-0.00143427
0.00105879
-0.00161185
0.00121746
-0.00179117
0.00133995
-0.00196457
0.00139282
-0.00212286
0.00133283
-0.00225629
0.00110806
-0.0023456
0.000598219
-0.00238962
3.98367e-06
-0.00240468
-0.000473422
-0.0023989
-0.000831352
-0.00237052
-0.00108284
-0.00231452
-0.00124272
-0.00222447
-0.00132537
-0.00209603
-0.00133988
-0.00192796
-0.00129468
-0.00172121
-0.00119971
-0.00148057
-0.00106255
-0.00121465
-0.000891671
-0.000935704
-0.000696652
-0.000660297
-0.000487226
-0.000410014
-0.000274204
-0.000220755
-7.05572e-05
-0.000105218
9.73301e-05
-4.59544e-05
0.000221677
-1.56805e-05
0.000313884
0.000424044
-6.18007e-05
-2.27052e-05
-0.000129046
-5.63674e-07
-0.000200581
2.04986e-05
-0.0002767
4.58561e-05
-0.000357732
7.8313e-05
-0.000443848
0.000120034
-0.000535867
0.000173771
-0.000635439
0.000242356
-0.000744179
0.000328572
-0.00086362
0.000434764
-0.000995009
0.000562267
-0.00113901
0.000710669
-0.00129535
0.000877048
-0.00146247
0.00105506
-0.0016373
0.00123362
-0.00181505
0.00139521
-0.00198927
0.00151417
-0.00215221
0.00155576
-0.00229575
0.00147637
-0.00241327
0.00122558
-0.00249315
0.0006781
-0.00254083
5.16659e-05
-0.00257344
-0.000440807
-0.00259843
-0.00080636
-0.0026119
-0.00106937
-0.00260555
-0.00124907
-0.00257056
-0.00136035
-0.00249946
-0.00141098
-0.00238754
-0.0014066
-0.00223154
-0.0013557
-0.0020314
-0.00126269
-0.00179089
-0.00113218
-0.00151597
-0.000971579
-0.00121589
-0.000787298
-0.000904408
-0.000585689
-0.000601488
-0.000373478
-0.000346387
-0.000157771
-0.000165995
4.12854e-05
-6.3031e-05
0.00021092
0.000361013
-7.34931e-05
5.07881e-05
-0.000150972
7.69153e-05
-0.00023172
0.000101247
-0.000316217
0.000130353
-0.000405123
0.000167219
-0.000499501
0.000214411
-0.000600375
0.000274645
-0.000708802
0.000350783
-0.000825863
0.000445633
-0.000952572
0.000561474
-0.00108966
0.000699352
-0.00123721
0.000858217
-0.00139423
0.00103407
-0.0015583
0.00121913
-0.00172534
0.00140067
-0.00188967
0.00155953
-0.0020443
0.0016688
-0.00218168
0.00169315
-0.0022952
0.00158988
-0.00238179
0.00131218
-0.00243986
0.000736171
-0.00248345
9.5252e-05
-0.00252928
-0.00039497
-0.00258258
-0.000753062
-0.0026381
-0.00101385
-0.00268555
-0.00120162
-0.00271447
-0.00133143
-0.00271438
-0.00141107
-0.00267647
-0.00144451
-0.00259561
-0.00143656
-0.00246869
-0.00138962
-0.00229538
-0.00130549
-0.00207699
-0.00118997
-0.00181619
-0.0010481
-0.00151772
-0.000884159
-0.0011887
-0.000702497
-0.000840221
-0.000506251
-0.000502279
-0.000296657
-0.000213966
-7.73935e-05
0.000147047
-6.85473e-05
0.000119336
-0.000142205
0.000150573
-0.000221227
0.000180269
-0.000305758
0.000214884
-0.000395918
0.000257379
-0.000491883
0.000310377
-0.000593916
0.000376678
-0.000702384
0.000459251
-0.000817728
0.000560977
-0.000940392
0.000684137
-0.00107063
0.000829594
-0.00120817
0.000995756
-0.00135167
0.00117757
-0.00149822
0.00136569
-0.00164314
0.00154559
-0.00178018
0.00169657
-0.00190214
0.00179076
-0.0020018
0.00179281
-0.00207378
0.00166186
-0.00211759
0.001356
-0.00214162
0.000760201
-0.00216889
0.000122517
-0.00221512
-0.000348736
-0.00228266
-0.000685524
-0.00236587
-0.00093063
-0.00245422
-0.00111328
-0.0025352
-0.00125044
-0.00259561
-0.00135066
-0.00262315
-0.00141697
-0.00261013
-0.00144958
-0.00255153
-0.00144822
-0.00244424
-0.00141277
-0.0022881
-0.00134611
-0.00208382
-0.00125239
-0.00183242
-0.00113555
-0.0015351
-0.000999824
-0.00119317
-0.000848181
-0.000808833
-0.00068099
-0.000393826
-0.0004924
-0.000246779
-5.55911e-05
0.000174927
-0.000118277
0.000213259
-0.000186683
0.000248676
-0.000260521
0.000288723
-0.000339605
0.000336463
-0.00042374
0.000394512
-0.000512706
0.000465644
-0.000606273
0.000552818
-0.000704227
0.000658931
-0.000806392
0.000786302
-0.000912592
0.000935794
-0.00102243
0.00110559
-0.00113476
0.0012899
-0.0012471
0.00147803
-0.00135506
0.00165355
-0.00145267
0.00179418
-0.00153328
0.00187137
-0.00159044
0.00184998
-0.00161985
0.00169126
-0.00162206
0.00135821
-0.00161202
0.000750164
-0.00161736
0.000127858
-0.00165136
-0.000314738
-0.00171336
-0.00062352
-0.00179848
-0.00084551
-0.0018988
-0.00101295
-0.00200296
-0.00114628
-0.00209654
-0.00125708
-0.00216444
-0.00134908
-0.00219391
-0.0014201
-0.00217662
-0.00146551
-0.00210848
-0.00148091
-0.00198983
-0.00146476
-0.00182344
-0.00141878
-0.00161267
-0.00134631
-0.00136129
-0.0012512
-0.00107292
-0.00113655
-0.000750707
-0.0010032
-0.00039661
-0.000846497
-0.000643388
-3.49458e-05
0.000209873
-7.57405e-05
0.000254054
-0.000121006
0.000293941
-0.000170322
0.000338039
-0.000223325
0.000389466
-0.000279565
0.000450752
-0.00033847
0.00052455
-0.000399352
0.0006137
-0.000461459
0.000721037
-0.00052407
0.000848914
-0.000586619
0.000998343
-0.000648732
0.00116771
-0.000709968
0.00135114
-0.000768963
0.00153702
-0.000823253
0.00170784
-0.000869123
0.00184005
-0.000901602
0.00190385
-0.000916619
0.00186499
-0.000911908
0.00168655
-0.000888071
0.00133437
-0.000860517
0.000722612
-0.00085115
0.000118493
-0.00086788
-0.000298007
-0.000908014
-0.000583385
-0.000968538
-0.000784985
-0.00104819
-0.000933304
-0.001143
-0.00105146
-0.0012433
-0.00115679
-0.00133408
-0.00125829
-0.0013993
-0.00135489
-0.00142589
-0.00143892
-0.00140731
-0.00149949
-0.00134327
-0.0015288
-0.00123696
-0.00152509
-0.00109324
-0.00149004
-0.000917366
-0.00142707
-0.000714361
-0.00133956
-0.000488769
-0.0012288
-0.000245804
-0.00108946
-0.000889192
-1.46674e-05
0.000224541
-3.35201e-05
0.000272907
-5.51693e-05
0.00031559
-7.90854e-05
0.000361955
-0.000104795
0.000415176
-0.000131721
0.000477678
-0.000159126
0.000551956
-0.000186109
0.000640683
-0.00021164
0.000746568
-0.000234669
0.000871943
-0.000254326
0.001018
-0.000270155
0.00118353
-0.0002823
0.00136328
-0.000290565
0.00154529
-0.000294216
0.00171149
-0.000291781
0.00183762
-0.000281173
0.00189324
-0.000261114
0.00184494
-0.000231939
0.00165737
-0.000195341
0.00129778
-0.000171187
0.000698459
-0.000176618
0.000123926
-0.000199674
-0.00027495
-0.000233769
-0.000549289
-0.000277117
-0.000741637
-0.000331739
-0.000878681
-0.000400968
-0.000982231
-0.000484967
-0.00107279
-0.000576607
-0.00116665
-0.000662588
-0.0012689
-0.000726246
-0.00137527
-0.000756546
-0.00146919
-0.000751189
-0.00153415
-0.000712069
-0.00156421
-0.000643405
-0.0015587
-0.000549852
-0.00152063
-0.000435661
-0.00145375
-0.000304068
-0.00136039
-0.000157039
-0.00123649
-0.00104623
-3.38685e-07
0.00022488
-3.23825e-06
0.000275807
-7.65182e-06
0.000320004
-1.30163e-05
0.00036732
-1.88002e-05
0.00042096
-2.43612e-05
0.000483239
-2.88844e-05
0.000556479
-3.13572e-05
0.000643156
-3.05874e-05
0.000745798
-2.52828e-05
0.000866639
-1.42263e-05
0.00100694
3.44403e-06
0.00116586
2.79804e-05
0.00133874
5.88495e-05
0.00151442
9.52949e-05
0.00167504
0.00013693
0.00179598
0.000182982
0.00184719
0.000232149
0.00179577
0.000281151
0.00160837
0.00032407
0.00125486
0.000336786
0.000685744
0.000309962
0.000150751
0.000266568
-0.000231555
0.000216927
-0.000499647
0.000163754
-0.000688463
0.000107488
-0.000822414
4.58561e-05
-0.000920599
-2.59085e-05
-0.00100102
-0.000110777
-0.00108178
-0.000203023
-0.00117666
-0.000287466
-0.00129082
-0.000348416
-0.00140824
-0.000381334
-0.00150123
-0.00038596
-0.00155958
-0.000365624
-0.00157904
-0.000324155
-0.00156209
-0.000265085
-0.00151282
-0.00019095
-0.00143452
-0.000102457
-0.00132498
-0.00114869
9.31619e-06
0.000215564
1.74033e-05
0.00026772
2.48994e-05
0.000312508
3.23444e-05
0.000359875
4.02904e-05
0.000413014
4.94104e-05
0.000474119
6.05619e-05
0.000545328
7.48238e-05
0.000628894
9.35009e-05
0.000727121
0.000118075
0.000842065
0.000150073
0.000974947
0.000190813
0.00112512
0.000241091
0.00128847
0.000300384
0.00145513
0.000367187
0.00160824
0.000439393
0.00172378
0.000513974
0.00177261
0.000586854
0.00172289
0.000651772
0.00154346
0.000698312
0.00120832
0.000704411
0.000679645
0.000670095
0.000185068
0.000613337
-0.000174796
0.000546003
-0.000432314
0.000473781
-0.00061624
0.000399984
-0.000748616
0.000325803
-0.000846418
0.00024909
-0.000924311
0.000165346
-0.000998035
7.42042e-05
-0.00108551
-1.75729e-05
-0.00119904
-9.75942e-05
-0.00132822
-0.000155395
-0.00144343
-0.00018785
-0.00152713
-0.000197869
-0.00156902
-0.000188525
-0.00157144
-0.000162865
-0.00153848
-0.00012305
-0.00147434
-6.94478e-05
-0.00137858
-0.00121813
1.55034e-05
0.00020006
3.06351e-05
0.000252589
4.58024e-05
0.000297341
6.15037e-05
0.000344174
7.82918e-05
0.000396226
9.68546e-05
0.000455557
0.000118077
0.000524105
0.000143088
0.000603884
0.000173276
0.000696933
0.000210267
0.000805074
0.000255815
0.000929398
0.000311576
0.00106936
0.000378693
0.00122135
0.000457084
0.00137673
0.000545135
0.00152019
0.000639624
0.00162929
0.000735789
0.00167644
0.000827191
0.00163149
0.000905015
0.00146563
0.000956234
0.0011571
0.000962261
0.000673619
0.000926862
0.000220467
0.000864021
-0.000111955
0.000785437
-0.00035373
0.000698242
-0.000529045
0.000607393
-0.000657767
0.000516013
-0.000755038
0.000425122
-0.000833419
0.000333691
-0.000906604
0.000240525
-0.000992347
0.000147333
-0.00110585
6.05066e-05
-0.00124139
-1.00445e-05
-0.00137288
-6.06679e-05
-0.00147651
-9.0679e-05
-0.001539
-0.000102233
-0.00155988
-9.80829e-05
-0.00154263
-8.00941e-05
-0.00149232
-4.85327e-05
-0.00141015
-0.00126667
1.89645e-05
0.000181096
3.81302e-05
0.000233424
5.77366e-05
0.000277735
7.82331e-05
0.000323677
0.000100164
0.000374295
0.000124226
0.000431494
0.000151327
0.000497005
0.00018263
0.000572581
0.000219584
0.000659979
0.000263911
0.000760747
0.000317514
0.000875795
0.000382265
0.00100461
0.000459588
0.00114403
0.000549789
0.00128653
0.000651397
0.00141858
0.000760738
0.00151995
0.00087194
0.00156524
0.000976853
0.00152658
0.00106476
0.00137772
0.00112135
0.00110052
0.00113043
0.000664536
0.00109715
0.000253751
0.00103347
-4.82733e-05
0.000950409
-0.000270672
0.000855258
-0.000433894
0.000753835
-0.000556343
0.00065042
-0.000651622
0.000547636
-0.000730635
0.000446446
-0.000805413
0.000347036
-0.000892937
0.000251031
-0.00100984
0.000162958
-0.00115332
8.77477e-05
-0.00129767
2.77843e-05
-0.00141654
-1.50597e-05
-0.00149616
-4.15352e-05
-0.00153341
-5.27812e-05
-0.00153138
-5.032e-05
-0.00149479
-3.41331e-05
-0.00142633
-0.0013008
2.0319e-05
0.000160778
4.11971e-05
0.000212546
6.27672e-05
0.000256165
8.5432e-05
0.000301013
0.000109728
0.000349999
0.000136365
0.000404858
0.000166272
0.000467098
0.000200647
0.000538206
0.000240986
0.000619641
0.000289065
0.000712668
0.000346868
0.000817992
0.000416376
0.000935105
0.000499175
0.00106123
0.000595819
0.00118989
0.000705038
0.00130936
0.000823086
0.0014019
0.000943532
0.0014448
0.00105721
0.0014129
0.00115223
0.00128271
0.00121378
0.00103896
0.0012272
0.000651119
0.00119844
0.000282512
0.00113773
1.2434e-05
0.0010551
-0.00018804
0.000957989
-0.000336784
0.000852432
-0.000450786
0.000743193
-0.000542384
0.000633915
-0.000621356
0.00052723
-0.000698728
0.000424949
-0.000790655
0.000328442
-0.000913337
0.000239789
-0.00106466
0.000161952
-0.00121983
9.71107e-05
-0.0013517
4.59547e-05
-0.001445
8.56585e-06
-0.00149602
-1.52219e-05
-0.00150759
-2.57471e-05
-0.00148426
-2.23521e-05
-0.00142973
-0.00132315
2.00308e-05
0.000140747
4.08214e-05
0.000191756
6.24617e-05
0.000234525
8.53212e-05
0.000278153
0.000109937
0.000325383
0.000137036
0.000377759
0.00016758
0.000436554
0.0002028
0.000502985
0.000244224
0.000578217
0.000293656
0.000663236
0.000353096
0.000758553
0.000424541
0.00086366
0.000509611
0.000976158
0.000608953
0.00109055
0.000721439
0.00119687
0.000843413
0.00127993
0.000968291
0.00131992
0.00108649
0.0012947
0.0011856
0.00118359
0.00125094
0.000973624
0.00126884
0.000633219
0.00124594
0.00030541
0.00119087
6.75e-05
0.00111215
-0.000109315
0.00101801
-0.00024264
0.000914061
-0.000346842
0.000805074
-0.000433397
0.000695338
-0.000511619
0.000588956
-0.000592346
0.000489205
-0.000690904
0.000396865
-0.000820997
0.000311097
-0.000978896
0.000232434
-0.00114117
0.00016278
-0.00128205
0.000103873
-0.0013861
5.66458e-05
-0.00144879
2.13156e-05
-0.00147226
-1.49592e-06
-0.00146145
-1.07126e-05
-0.00142051
-0.00133386
1.84571e-05
0.00012229
3.77661e-05
0.000172447
5.80401e-05
0.000214251
7.96358e-05
0.000256558
0.000103103
0.000301917
0.000129197
0.000351665
0.000158913
0.000406838
0.000193517
0.000468382
0.000234551
0.000537182
0.000283817
0.00061397
0.000343277
0.000699093
0.000414859
0.000792078
0.000500111
0.000890906
0.000599641
0.000991017
0.000712372
0.00108414
0.000834773
0.00115752
0.000960362
0.00119433
0.00107958
0.00117548
0.00118008
0.0010831
0.00124769
0.000906013
0.00126958
0.00061133
0.00125177
0.000323214
0.00120356
0.000115709
0.00113244
-3.81889e-05
0.00104574
-0.000155939
0.000948558
-0.000249663
0.000845671
-0.00033051
0.000742067
-0.000408015
0.000643095
-0.000493375
0.000552472
-0.00060028
0.000469141
-0.000737666
0.000389125
-0.00089888
0.000310895
-0.00106294
0.000236318
-0.00120747
0.000168335
-0.00131811
0.000109397
-0.00138985
6.11624e-05
-0.00142403
2.48562e-05
-0.00142514
2.04949e-06
-0.0013977
-0.00133182
1.58807e-05
0.00010641
3.26398e-05
0.000155688
5.04775e-05
0.000196413
6.97628e-05
0.000237273
9.10701e-05
0.000280609
0.00011519
0.000327545
0.000143151
0.000378877
0.000176241
0.000435292
0.000216004
0.00049742
0.000264199
0.000565775
0.000322706
0.000640586
0.000393322
0.000721462
0.00047744
0.000806787
0.000575545
0.000892913
0.000686527
0.000973162
0.00080698
0.00103707
0.00093066
0.00107065
0.00104835
0.00105779
0.00114814
0.000983306
0.00121678
0.000837373
0.00124234
0.000585767
0.00123025
0.000335303
0.00119028
0.000155687
0.00112896
2.31222e-05
0.00105269
-7.96648e-05
0.000966676
-0.00016365
0.000875879
-0.000239713
0.000785988
-0.000318123
0.000702514
-0.000409901
0.00062736
-0.000525126
0.00055634
-0.000666646
0.000483054
-0.000825594
0.000404942
-0.000984826
0.000324229
-0.00112676
0.000245218
-0.0012391
0.000172061
-0.0013167
0.000107994
-0.00135996
5.54751e-05
-0.00137262
1.69107e-05
-0.00135914
-0.0013149
1.25255e-05
9.38844e-05
2.59282e-05
0.000142286
4.05558e-05
0.000181786
5.68142e-05
0.000221014
7.53127e-05
0.000262111
9.68738e-05
0.000305984
0.00012255
0.000353201
0.000153636
0.000404206
0.000191653
0.000459403
0.000238292
0.000519136
0.00029531
0.000583568
0.00036433
0.000652443
0.000446552
0.000724566
0.000542283
0.000797182
0.000650341