/*--------------------------------*- C++ -*----------------------------------*\
| =========                 |                                                 |
| \\      /  F ield         | OpenFOAM: The Open Source CFD Toolbox           |
|  \\    /   O peration     | Version:  2.2.0                                 |
|   \\  /    A nd           | Web:      www.OpenFOAM.org                      |
|    \\/     M anipulation  |                                                 |
\*---------------------------------------------------------------------------*/
FoamFile
{
    version     2.0;
    format      ascii;
    class       volScalarField;
    location    "1000";
    object      rho;
}
// * * * * * * * * * * * * * * * * * * * * * * * * * * * * * * * * * * * * * //

dimensions      [1 -3 0 0 0 0 0];

internalField   nonuniform List<scalar> 
7600
(
1.15534
1.15509
1.15496
1.15488
1.15484
1.15481
1.1548
1.15481
1.15483
1.15486
1.15491
1.15496
1.15502
1.15508
1.15514
1.1552
1.15521
1.15513
1.1548
1.15404
1.15284
1.15171
1.15103
1.15065
1.15045
1.15036
1.15035
1.15039
1.15047
1.15057
1.15067
1.15079
1.15092
1.15105
1.15119
1.15134
1.15149
1.15162
1.15143
1.14669
1.15481
1.15458
1.15448
1.15443
1.15441
1.1544
1.15441
1.15443
1.15446
1.15449
1.15454
1.1546
1.15466
1.15473
1.15481
1.15486
1.15484
1.15469
1.15425
1.15336
1.15211
1.15103
1.15035
1.14996
1.14975
1.14964
1.14962
1.14965
1.14973
1.14984
1.14996
1.1501
1.15025
1.15041
1.15058
1.15075
1.15091
1.15096
1.15044
1.14535
1.1546
1.15434
1.15425
1.15422
1.15421
1.15422
1.15424
1.15426
1.1543
1.15434
1.1544
1.15446
1.15453
1.1546
1.15467
1.1547
1.15465
1.15442
1.15389
1.15292
1.15169
1.15068
1.15001
1.14961
1.14939
1.14929
1.14927
1.14931
1.1494
1.14952
1.14965
1.14981
1.14997
1.15014
1.15032
1.15049
1.15062
1.15058
1.14982
1.14442
1.15444
1.15416
1.15408
1.15405
1.15405
1.15407
1.1541
1.15413
1.15418
1.15423
1.15429
1.15436
1.15443
1.1545
1.15455
1.15456
1.15446
1.15417
1.15354
1.1525
1.15131
1.15035
1.14971
1.14931
1.14908
1.14897
1.14896
1.14901
1.14912
1.14926
1.14942
1.14959
1.14978
1.14996
1.15015
1.15031
1.15041
1.15027
1.14931
1.14367
1.15431
1.15401
1.15393
1.15391
1.15391
1.15393
1.15397
1.15401
1.15406
1.15412
1.15419
1.15426
1.15433
1.15439
1.15443
1.1544
1.15425
1.15387
1.15313
1.15206
1.15092
1.15
1.14939
1.149
1.14876
1.14865
1.14864
1.14871
1.14884
1.14901
1.1492
1.1494
1.14961
1.14981
1.15
1.15016
1.15021
1.14998
1.14886
1.14298
1.15418
1.15387
1.15379
1.15377
1.15378
1.15381
1.15384
1.15389
1.15394
1.15401
1.15407
1.15415
1.15421
1.15427
1.15428
1.15421
1.15398
1.15349
1.15267
1.15159
1.15049
1.14963
1.14905
1.14867
1.14843
1.14831
1.1483
1.14839
1.14855
1.14875
1.14898
1.14921
1.14944
1.14966
1.14987
1.15001
1.15002
1.14969
1.14843
1.14233
1.15405
1.15374
1.15366
1.15364
1.15365
1.15368
1.15372
1.15376
1.15382
1.15388
1.15395
1.15402
1.15408
1.15411
1.15409
1.15396
1.15364
1.15304
1.15215
1.15108
1.15003
1.14923
1.1487
1.14835
1.14811
1.14797
1.14795
1.14804
1.14823
1.14847
1.14874
1.14901
1.14927
1.14952
1.14972
1.14985
1.14982
1.14941
1.14802
1.14167
1.15393
1.15361
1.15353
1.15351
1.15352
1.15355
1.15358
1.15363
1.15368
1.15374
1.15381
1.15387
1.15391
1.15392
1.15385
1.15364
1.15321
1.15252
1.15159
1.15054
1.14957
1.14884
1.14837
1.14805
1.14781
1.14766
1.1476
1.14768
1.14788
1.14817
1.14849
1.1488
1.1491
1.14936
1.14957
1.14968
1.1496
1.14911
1.1476
1.141
1.1538
1.15348
1.1534
1.15338
1.15339
1.15341
1.15344
1.15348
1.15353
1.15359
1.15364
1.15369
1.1537
1.15367
1.15353
1.15322
1.1527
1.15194
1.15099
1.15
1.14912
1.14849
1.14809
1.1478
1.14756
1.14738
1.14729
1.14733
1.14752
1.14785
1.14822
1.14858
1.14891
1.1492
1.14941
1.14949
1.14936
1.1488
1.14716
1.14029
1.15367
1.15334
1.15326
1.15324
1.15324
1.15326
1.15329
1.15332
1.15336
1.1534
1.15344
1.15346
1.15344
1.15334
1.15312
1.15272
1.15211
1.15131
1.15039
1.14948
1.14872
1.14822
1.14789
1.14763
1.14739
1.14717
1.14703
1.147
1.14714
1.14748
1.14792
1.14834
1.14871
1.14901
1.14921
1.14927
1.14909
1.14846
1.14668
1.13953
1.15354
1.1532
1.15312
1.1531
1.15309
1.1531
1.15311
1.15313
1.15316
1.15318
1.15319
1.15317
1.15309
1.15293
1.15262
1.15214
1.15148
1.15068
1.14983
1.14904
1.14844
1.14807
1.14782
1.14759
1.14732
1.14705
1.14683
1.14671
1.14676
1.14703
1.1475
1.14802
1.14845
1.14878
1.14898
1.14902
1.14879
1.14807
1.14616
1.13873
1.1534
1.15306
1.15297
1.15294
1.15292
1.15292
1.15292
1.15292
1.15292
1.15291
1.15288
1.15281
1.15267
1.15243
1.15205
1.15152
1.15085
1.15009
1.14935
1.14874
1.14832
1.14809
1.14792
1.14769
1.14739
1.14704
1.14672
1.14647
1.14639
1.14652
1.14691
1.14752
1.14807
1.14845
1.14867
1.14869
1.14842
1.14762
1.14558
1.13785
1.15324
1.1529
1.15281
1.15277
1.15274
1.15272
1.1527
1.15267
1.15264
1.15259
1.15251
1.15239
1.15218
1.15188
1.15145
1.1509
1.15027
1.14962
1.14905
1.14864
1.14841
1.14831
1.14821
1.14798
1.14763
1.14721
1.14675
1.14635
1.14606
1.14597
1.14617
1.14666
1.14738
1.14791
1.1482
1.14823
1.14793
1.14706
1.14489
1.1369
1.15308
1.15274
1.15263
1.15258
1.15253
1.15249
1.15244
1.15238
1.15231
1.15222
1.15209
1.15191
1.15166
1.15131
1.15087
1.15036
1.14982
1.14933
1.14897
1.14878
1.14876
1.14877
1.14871
1.14848
1.1481
1.1476
1.14703
1.14644
1.1459
1.14551
1.14536
1.14554
1.14608
1.14688
1.14736
1.14749
1.14721
1.1463
1.14402
1.13584
1.15291
1.15256
1.15244
1.15237
1.1523
1.15223
1.15215
1.15206
1.15195
1.15182
1.15165
1.15143
1.15115
1.1508
1.15039
1.14997
1.14957
1.14928
1.14916
1.1492
1.14934
1.14945
1.14943
1.14921
1.14883
1.1483
1.14765
1.14691
1.14613
1.14539
1.14479
1.14444
1.14447
1.14493
1.14573
1.14614
1.146
1.14513
1.14281
1.13453
1.15273
1.15237
1.15224
1.15214
1.15206
1.15196
1.15185
1.15173
1.1516
1.15144
1.15124
1.151
1.15072
1.15041
1.15008
1.14979
1.14958
1.14951
1.1496
1.14983
1.15011
1.1503
1.15031
1.15013
1.14979
1.14929
1.14864
1.14785
1.14693
1.14593
1.1449
1.14394
1.14318
1.14278
1.14288
1.14346
1.14371
1.14305
1.14086
1.13284
1.15254
1.15217
1.15202
1.15191
1.15181
1.1517
1.15158
1.15144
1.15129
1.15111
1.15091
1.15068
1.15043
1.15019
1.14997
1.14983
1.14981
1.14993
1.15021
1.15058
1.15096
1.1512
1.15122
1.1511
1.15085
1.15046
1.14992
1.14922
1.14835
1.14729
1.14606
1.14468
1.14323
1.14181
1.14058
1.13975
1.13949
1.13925
1.13743
1.13035
1.15236
1.15198
1.15184
1.15172
1.15161
1.15149
1.15136
1.15121
1.15105
1.15087
1.15068
1.15048
1.15029
1.15013
1.15003
1.15004
1.15018
1.15045
1.15085
1.15129
1.1517
1.15194
1.15199
1.15193
1.15179
1.15156
1.15123
1.15076
1.15012
1.14928
1.14821
1.14687
1.14526
1.14336
1.14119
1.13881
1.13631
1.13385
1.13139
1.12577
1.15228
1.15187
1.15171
1.15159
1.15147
1.15135
1.15121
1.15106
1.15089
1.15072
1.15055
1.15039
1.15026
1.15018
1.15019
1.15031
1.15056
1.15093
1.15137
1.15181
1.15218
1.15239
1.15243
1.15242
1.15238
1.15231
1.15219
1.152
1.1517
1.15125
1.15061
1.14974
1.14858
1.14708
1.14517
1.14277
1.13979
1.13601
1.13104
1.12307
1.15223
1.1518
1.15163
1.1515
1.15138
1.15125
1.15111
1.15096
1.15081
1.15065
1.15049
1.15037
1.15028
1.15027
1.15036
1.15055
1.15086
1.15125
1.15169
1.15208
1.15237
1.1525
1.15251
1.15251
1.15252
1.15254
1.15256
1.15257
1.15255
1.15245
1.15223
1.15186
1.15126
1.15039
1.14917
1.14749
1.14518
1.1419
1.13689
1.12755
1.15221
1.15176
1.15158
1.15145
1.15133
1.1512
1.15107
1.15092
1.15077
1.15062
1.15048
1.15037
1.15032
1.15033
1.15045
1.15067
1.151
1.1514
1.15181
1.15216
1.15236
1.15241
1.15239
1.15237
1.15237
1.15239
1.15246
1.15255
1.15267
1.15278
1.15284
1.15279
1.15258
1.15214
1.15139
1.15024
1.14849
1.14578
1.14112
1.1307
1.15221
1.15174
1.15156
1.15143
1.15131
1.15118
1.15105
1.15091
1.15077
1.15063
1.15049
1.15039
1.15033
1.15035
1.15047
1.15069
1.15101
1.1514
1.15179
1.15211
1.15229
1.15231
1.15227
1.15222
1.15219
1.15218
1.15222
1.1523
1.15245
1.15265
1.15286
1.15301
1.15304
1.15287
1.15243
1.1516
1.15022
1.14789
1.14359
1.1329
1.15222
1.15174
1.15156
1.15143
1.15131
1.15119
1.15106
1.15093
1.15079
1.15065
1.15052
1.15041
1.15035
1.15035
1.15045
1.15065
1.15095
1.15132
1.15169
1.15199
1.15216
1.15218
1.15215
1.1521
1.15206
1.15204
1.15204
1.15209
1.15221
1.15242
1.15269
1.15297
1.15315
1.15317
1.15293
1.15234
1.15121
1.14918
1.14522
1.13459
1.15224
1.15176
1.15157
1.15144
1.15132
1.15121
1.15109
1.15096
1.15082
1.15069
1.15056
1.15045
1.15037
1.15036
1.15043
1.1506
1.15086
1.15119
1.15153
1.15181
1.15196
1.15201
1.152
1.15197
1.15193
1.15191
1.15191
1.15195
1.15204
1.15222
1.15251
1.15285
1.15315
1.1533
1.15322
1.15279
1.15186
1.15007
1.14641
1.13601
1.15227
1.15178
1.15159
1.15147
1.15135
1.15124
1.15112
1.151
1.15087
1.15074
1.15061
1.1505
1.15042
1.15038
1.15042
1.15056
1.15077
1.15105
1.15135
1.1516
1.15175
1.1518
1.15181
1.1518
1.15179
1.15178
1.15179
1.15183
1.15191
1.15208
1.15236
1.15273
1.1531
1.15336
1.1534
1.15312
1.15235
1.15077
1.14738
1.13727
1.1523
1.15182
1.15163
1.1515
1.15139
1.15128
1.15117
1.15105
1.15093
1.1508
1.15067
1.15056
1.15047
1.15042
1.15043
1.15053
1.15069
1.15092
1.15117
1.15139
1.15153
1.1516
1.15162
1.15163
1.15164
1.15165
1.15168
1.15172
1.15181
1.15197
1.15226
1.15265
1.15306
1.15339
1.15353
1.15337
1.15275
1.15135
1.14822
1.13845
1.15234
1.15186
1.15167
1.15154
1.15143
1.15133
1.15122
1.15111
1.15099
1.15087
1.15074
1.15063
1.15053
1.15047
1.15046
1.15052
1.15064
1.15082
1.15102
1.15121
1.15134
1.15141
1.15145
1.15148
1.1515
1.15154
1.15157
1.15163
1.15172
1.15189
1.15218
1.15259
1.15303
1.15341
1.15363
1.15357
1.15308
1.15186
1.14898
1.13958
1.15238
1.15191
1.15172
1.15159
1.15148
1.15138
1.15128
1.15117
1.15105
1.15094
1.15082
1.15071
1.15061
1.15054
1.15051
1.15053
1.15062
1.15075
1.15091
1.15107
1.15118
1.15126
1.15131
1.15135
1.15139
1.15144
1.15149
1.15156
1.15166
1.15185
1.15215
1.15256
1.15302
1.15344
1.15371
1.15374
1.15337
1.15231
1.14968
1.14067
1.15243
1.15196
1.15177
1.15164
1.15154
1.15144
1.15134
1.15123
1.15113
1.15101
1.1509
1.15079
1.15069
1.15061
1.15057
1.15057
1.15062
1.15072
1.15084
1.15097
1.15107
1.15115
1.15121
1.15126
1.15131
1.15136
1.15143
1.15151
1.15164
1.15184
1.15215
1.15257
1.15304
1.15348
1.15379
1.15388
1.15362
1.15271
1.15033
1.14174
1.15248
1.15201
1.15182
1.1517
1.15159
1.1515
1.1514
1.1513
1.1512
1.15109
1.15098
1.15088
1.15078
1.1507
1.15065
1.15063
1.15066
1.15072
1.15081
1.15092
1.15101
1.15108
1.15114
1.1512
1.15126
1.15132
1.1514
1.1515
1.15165
1.15188
1.15221
1.15263
1.15309
1.15353
1.15387
1.15402
1.15384
1.15306
1.1509
1.14281
1.15252
1.15206
1.15188
1.15175
1.15165
1.15156
1.15146
1.15137
1.15127
1.15117
1.15107
1.15097
1.15087
1.15079
1.15074
1.15071
1.15071
1.15075
1.15082
1.1509
1.15098
1.15105
1.15112
1.15118
1.15124
1.15132
1.15141
1.15154
1.15173
1.152
1.15234
1.15274
1.15319
1.15362
1.15397
1.15416
1.15405
1.15339
1.15144
1.14382
1.15257
1.15211
1.15193
1.15181
1.15171
1.15162
1.15153
1.15144
1.15135
1.15125
1.15115
1.15106
1.15097
1.15089
1.15083
1.15079
1.15078
1.1508
1.15085
1.15092
1.15099
1.15106
1.15113
1.1512
1.15128
1.15138
1.15151
1.15169
1.15191
1.1522
1.15254
1.15292
1.15334
1.15374
1.15409
1.1543
1.15425
1.15369
1.15193
1.14479
1.15261
1.15215
1.15197
1.15186
1.15176
1.15167
1.15159
1.1515
1.15141
1.15132
1.15123
1.15114
1.15106
1.15098
1.15092
1.15088
1.15086
1.15087
1.15091
1.15097
1.15104
1.15112
1.15121
1.15131
1.15143
1.15157
1.15175
1.15196
1.15221
1.1525
1.15283
1.15318
1.15355
1.15392
1.15424
1.15446
1.15445
1.15398
1.15239
1.1457
1.15263
1.15218
1.15202
1.1519
1.15181
1.15173
1.15164
1.15156
1.15147
1.15139
1.1513
1.15122
1.15114
1.15107
1.15102
1.15098
1.15097
1.15098
1.15102
1.15109
1.15119
1.1513
1.15143
1.15158
1.15174
1.15193
1.15214
1.15237
1.15262
1.1529
1.15319
1.1535
1.15382
1.15414
1.15443
1.15463
1.15464
1.15425
1.15282
1.14657
1.15263
1.15221
1.15205
1.15194
1.15185
1.15177
1.15169
1.15161
1.15153
1.15145
1.15138
1.15131
1.15125
1.1512
1.15116
1.15115
1.15116
1.15119
1.15126
1.15137
1.15151
1.15167
1.15185
1.15203
1.15223
1.15244
1.15265
1.15288
1.15311
1.15336
1.15361
1.15387
1.15414
1.1544
1.15465
1.15483
1.15485
1.15451
1.15324
1.14741
1.15262
1.15222
1.15208
1.15197
1.15189
1.15181
1.15173
1.15166
1.15159
1.15153
1.15149
1.15145
1.15144
1.15144
1.15146
1.15149
1.15155
1.15163
1.15174
1.1519
1.15208
1.15227
1.15246
1.15265
1.15285
1.15305
1.15325
1.15345
1.15365
1.15386
1.15407
1.15428
1.1545
1.15471
1.1549
1.15505
1.15507
1.15478
1.15364
1.14824
1.1526
1.15223
1.1521
1.152
1.15192
1.15185
1.15179
1.15174
1.15173
1.15174
1.15177
1.15184
1.15192
1.15201
1.1521
1.15219
1.15228
1.15239
1.15251
1.15266
1.15283
1.153
1.15317
1.15335
1.15352
1.1537
1.15387
1.15403
1.1542
1.15437
1.15454
1.15471
1.15488
1.15504
1.15518
1.15529
1.1553
1.15505
1.15405
1.14908
1.15258
1.15225
1.15213
1.15206
1.15201
1.15199
1.15202
1.1521
1.15222
1.15237
1.15253
1.15269
1.15285
1.15298
1.15309
1.15319
1.15327
1.15334
1.15343
1.15353
1.15366
1.15379
1.15392
1.15407
1.1542
1.15434
1.15448
1.15461
1.15475
1.15488
1.15502
1.15515
1.15527
1.15538
1.15548
1.15555
1.15555
1.15534
1.15448
1.15
1.15264
1.15239
1.15235
1.15241
1.15254
1.15271
1.15292
1.15314
1.15337
1.15359
1.15379
1.15395
1.15409
1.15419
1.15426
1.1543
1.15433
1.15435
1.15438
1.15442
1.15448
1.15456
1.15466
1.15475
1.15486
1.15496
1.15506
1.15516
1.15527
1.15537
1.15547
1.15557
1.15565
1.15573
1.15579
1.15583
1.15582
1.15566
1.15501
1.15127
1.15337
1.15351
1.15373
1.15398
1.15426
1.15453
1.15479
1.15501
1.1552
1.15534
1.15543
1.15548
1.1555
1.15549
1.15547
1.15543
1.15538
1.15533
1.15529
1.15526
1.15526
1.15529
1.15534
1.15539
1.15546
1.15553
1.1556
1.15568
1.15575
1.15583
1.1559
1.15596
1.15602
1.15607
1.1561
1.15612
1.1561
1.15598
1.15549
1.15249
1.15862
1.15862
1.15862
1.15862
1.15862
1.15862
1.15862
1.15862
1.15862
1.15862
1.15862
1.15862
1.15862
1.15862
1.15862
1.15862
1.15862
1.15862
1.15862
1.15862
1.15862
1.15862
1.15862
1.15862
1.15862
1.15862
1.15862
1.15862
1.15862
1.15862
1.15861
1.15861
1.15861
1.15861
1.15861
1.15861
1.15861
1.15861
1.15861
1.15861
1.15861
1.15861
1.15861
1.15861
1.15861
1.15861
1.15861
1.15861
1.15861
1.15861
1.15861
1.15861
1.15861
1.15861
1.15861
1.15861
1.15861
1.15861
1.15861
1.15861
1.1586
1.1586
1.1586
1.1586
1.1586
1.1586
1.1586
1.1586
1.1586
1.1586
1.1586
1.1586
1.1586
1.1586
1.1586
1.1586
1.1586
1.1586
1.1586
1.1586
1.1586
1.1586
1.1586
1.1586
1.1586
1.1586
1.1586
1.1586
1.1586
1.1586
1.15859
1.15859
1.15859
1.15859
1.15859
1.15859
1.15859
1.15859
1.15859
1.15859
1.15859
1.15859
1.15859
1.15859
1.15859
1.15859
1.15859
1.15859
1.15859
1.15859
1.15859
1.15859
1.15859
1.15859
1.15859
1.15859
1.15859
1.15859
1.15859
1.15859
1.15857
1.15857
1.15857
1.15857
1.15857
1.15857
1.15857
1.15857
1.15857
1.15857
1.15857
1.15857
1.15857
1.15857
1.15857
1.15857
1.15857
1.15857
1.15857
1.15857
1.15857
1.15857
1.15857
1.15857
1.15857
1.15857
1.15857
1.15857
1.15857
1.15857
1.15856
1.15856
1.15856
1.15856
1.15856
1.15856
1.15856
1.15856
1.15856
1.15856
1.15856
1.15856
1.15856
1.15856
1.15856
1.15856
1.15856
1.15856
1.15856
1.15856
1.15856
1.15856
1.15856
1.15856
1.15856
1.15856
1.15856
1.15856
1.15856
1.15856
1.15855
1.15855
1.15855
1.15855
1.15855
1.15855
1.15855
1.15855
1.15855
1.15855
1.15855
1.15855
1.15855
1.15855
1.15855
1.15855
1.15855
1.15855
1.15855
1.15855
1.15855
1.15855
1.15855
1.15855
1.15855
1.15855
1.15855
1.15855
1.15855
1.15855
1.15853
1.15853
1.15853
1.15853
1.15853
1.15853
1.15853
1.15853
1.15853
1.15853
1.15853
1.15853
1.15853
1.15853
1.15853
1.15853
1.15853
1.15853
1.15853
1.15853
1.15853
1.15853
1.15853
1.15853
1.15853
1.15853
1.15853
1.15853
1.15853
1.15853
1.15852
1.15852
1.15852
1.15852
1.15852
1.15852
1.15852
1.15852
1.15852
1.15852
1.15852
1.15852
1.15852
1.15852
1.15852
1.15852
1.15852
1.15852
1.15852
1.15852
1.15852
1.15852
1.15852
1.15852
1.15852
1.15852
1.15852
1.15852
1.15852
1.15852
1.15851
1.15851
1.15851
1.15851
1.15851
1.15851
1.15851
1.15851
1.15851
1.15851
1.15851
1.15851
1.15851
1.15851
1.15851
1.15851
1.15851
1.15851
1.15851
1.15851
1.15851
1.15851
1.15851
1.15851
1.15851
1.15851
1.15851
1.15851
1.15851
1.15851
1.15849
1.15849
1.15849
1.15849
1.15849
1.15849
1.15849
1.15849
1.15849
1.15849
1.15849
1.15849
1.15849
1.15849
1.15849
1.15849
1.15849
1.15849
1.15849
1.15849
1.15849
1.15849
1.15849
1.15849
1.15849
1.15849
1.15849
1.15849
1.15849
1.15849
1.15847
1.15848
1.15848
1.15847
1.15847
1.15847
1.15847
1.15847
1.15847
1.15847
1.15847
1.15847
1.15847
1.15847
1.15847
1.15847
1.15847
1.15847
1.15847
1.15847
1.15847
1.15847
1.15847
1.15847
1.15848
1.15848
1.15848
1.15848
1.15848
1.15848
1.15846
1.15846
1.15846
1.15846
1.15846
1.15846
1.15846
1.15846
1.15846
1.15846
1.15846
1.15846
1.15846
1.15846
1.15846
1.15846
1.15846
1.15846
1.15846
1.15846
1.15846
1.15846
1.15846
1.15846
1.15846
1.15846
1.15846
1.15846
1.15846
1.15846
1.15844
1.15844
1.15844
1.15844
1.15844
1.15844
1.15844
1.15844
1.15844
1.15844
1.15844
1.15844
1.15844
1.15844
1.15844
1.15844
1.15844
1.15844
1.15844
1.15844
1.15844
1.15844
1.15844
1.15844
1.15844
1.15844
1.15844
1.15844
1.15844
1.15844
1.15843
1.15843
1.15843
1.15843
1.15843
1.15843
1.15843
1.15843
1.15843
1.15843
1.15843
1.15843
1.15843
1.15843
1.15843
1.15843
1.15843
1.15843
1.15843
1.15843
1.15843
1.15843
1.15843
1.15843
1.15843
1.15843
1.15843
1.15843
1.15843
1.15843
1.15841
1.15841
1.15841
1.15841
1.15841
1.15841
1.15841
1.15841
1.15841
1.15841
1.15841
1.15841
1.15841
1.15841
1.15841
1.15841
1.15841
1.15841
1.15841
1.15841
1.15841
1.15841
1.15841
1.15841
1.15841
1.15841
1.15841
1.15841
1.15841
1.15841
1.15839
1.15839
1.15839
1.15839
1.15839
1.15839
1.15839
1.15839
1.15839
1.15839
1.15839
1.15839
1.15839
1.15839
1.15839
1.15839
1.15839
1.15839
1.15839
1.15839
1.15839
1.15839
1.15839
1.15839
1.15839
1.15839
1.15839
1.15839
1.15839
1.15839
1.15837
1.15837
1.15837
1.15837
1.15837
1.15837
1.15837
1.15837
1.15837
1.15837
1.15837
1.15837
1.15837
1.15837
1.15837
1.15837
1.15837
1.15837
1.15837
1.15837
1.15837
1.15837
1.15837
1.15837
1.15837
1.15837
1.15837
1.15837
1.15837
1.15837
1.15835
1.15835
1.15835
1.15835
1.15835
1.15835
1.15835
1.15835
1.15835
1.15835
1.15835
1.15835
1.15835
1.15835
1.15835
1.15835
1.15835
1.15835
1.15835
1.15835
1.15835
1.15835
1.15835
1.15835
1.15835
1.15835
1.15835
1.15835
1.15835
1.15835
1.15833
1.15833
1.15833
1.15833
1.15833
1.15833
1.15833
1.15833
1.15833
1.15833
1.15833
1.15833
1.15833
1.15833
1.15833
1.15833
1.15833
1.15833
1.15833
1.15833
1.15833
1.15833
1.15833
1.15833
1.15833
1.15833
1.15833
1.15833
1.15833
1.15833
1.15831
1.15831
1.15831
1.15831
1.15831
1.15831
1.15831
1.15831
1.15831
1.15831
1.15831
1.15831
1.15831
1.15831
1.15831
1.15831
1.15831
1.15831
1.15831
1.15831
1.15831
1.15831
1.15831
1.15831
1.15831
1.15831
1.15831
1.15831
1.15831
1.15831
1.15829
1.15829
1.15829
1.15829
1.15829
1.15829
1.15829
1.15829
1.15829
1.15829
1.15829
1.15829
1.15829
1.15829
1.15829
1.15829
1.15829
1.15829
1.15829
1.15829
1.15829
1.15829
1.15829
1.15829
1.15829
1.15829
1.15829
1.15829
1.15829
1.15829
1.15827
1.15827
1.15827
1.15827
1.15827
1.15827
1.15827
1.15827
1.15827
1.15827
1.15827
1.15827
1.15827
1.15827
1.15827
1.15827
1.15827
1.15827
1.15827
1.15827
1.15827
1.15827
1.15827
1.15827
1.15827
1.15827
1.15827
1.15827
1.15827
1.15827
1.15825
1.15825
1.15825
1.15825
1.15825
1.15825
1.15825
1.15825
1.15825
1.15825
1.15825
1.15825
1.15825
1.15825
1.15825
1.15825
1.15825
1.15825
1.15825
1.15825
1.15825
1.15825
1.15825
1.15825
1.15825
1.15825
1.15825
1.15825
1.15825
1.15825
1.15822
1.15822
1.15822
1.15822
1.15822
1.15822
1.15822
1.15822
1.15822
1.15822
1.15822
1.15822
1.15822
1.15822
1.15822
1.15822
1.15822
1.15822
1.15822
1.15822
1.15822
1.15822
1.15822
1.15822
1.15822
1.15822
1.15822
1.15822
1.15822
1.15822
1.1582
1.1582
1.1582
1.1582
1.1582
1.1582
1.1582
1.1582
1.1582
1.1582
1.1582
1.1582
1.1582
1.1582
1.1582
1.1582
1.1582
1.1582
1.1582
1.1582
1.1582
1.1582
1.1582
1.1582
1.1582
1.1582
1.1582
1.1582
1.1582
1.1582
1.15817
1.15817
1.15817
1.15817
1.15817
1.15817
1.15817
1.15817
1.15817
1.15817
1.15817
1.15817
1.15817
1.15817
1.15817
1.15817
1.15817
1.15817
1.15817
1.15817
1.15817
1.15817
1.15817
1.15817
1.15817
1.15817
1.15817
1.15817
1.15817
1.15817
1.15815
1.15815
1.15815
1.15815
1.15815
1.15815
1.15815
1.15815
1.15815
1.15815
1.15815
1.15815
1.15815
1.15815
1.15815
1.15815
1.15815
1.15815
1.15815
1.15815
1.15815
1.15815
1.15815
1.15815
1.15815
1.15815
1.15815
1.15815
1.15815
1.15815
1.15812
1.15812
1.15812
1.15812
1.15812
1.15812
1.15812
1.15812
1.15812
1.15812
1.15812
1.15812
1.15812
1.15812
1.15812
1.15812
1.15812
1.15812
1.15812
1.15812
1.15812
1.15812
1.15812
1.15812
1.15812
1.15812
1.15812
1.15812
1.15812
1.15812
1.15809
1.15809
1.15809
1.15809
1.15809
1.15809
1.15809
1.15809
1.15809
1.15809
1.15809
1.15809
1.15809
1.15809
1.15809
1.15809
1.15809
1.15809
1.15809
1.15809
1.15809
1.15809
1.15809
1.15809
1.15809
1.15809
1.15809
1.15809
1.15809
1.15809
1.15807
1.15807
1.15807
1.15807
1.15807
1.15807
1.15807
1.15807
1.15807
1.15807
1.15807
1.15807
1.15807
1.15807
1.15807
1.15807
1.15807
1.15807
1.15807
1.15807
1.15807
1.15807
1.15807
1.15807
1.15807
1.15807
1.15807
1.15807
1.15807
1.15807
1.15804
1.15804
1.15804
1.15804
1.15804
1.15804
1.15804
1.15804
1.15804
1.15804
1.15804
1.15804
1.15804
1.15804
1.15804
1.15804
1.15804
1.15804
1.15804
1.15804
1.15804
1.15804
1.15804
1.15804
1.15804
1.15804
1.15804
1.15804
1.15804
1.15804
1.15801
1.15801
1.15801
1.15801
1.15801
1.15801
1.15801
1.15801
1.15801
1.15801
1.15801
1.15801
1.15801
1.15801
1.15801
1.15801
1.15801
1.15801
1.15801
1.15801
1.15801
1.15801
1.15801
1.15801
1.15801
1.15801
1.15801
1.15801
1.15801
1.15801
1.15797
1.15797
1.15797
1.15797
1.15797
1.15797
1.15797
1.15797
1.15797
1.15797
1.15797
1.15797
1.15797
1.15797
1.15797
1.15797
1.15797
1.15797
1.15797
1.15797
1.15797
1.15797
1.15797
1.15797
1.15797
1.15797
1.15797
1.15797
1.15797
1.15797
1.15794
1.15794
1.15794
1.15794
1.15794
1.15794
1.15794
1.15794
1.15794
1.15794
1.15794
1.15794
1.15794
1.15794
1.15794
1.15794
1.15794
1.15794
1.15794
1.15794
1.15794
1.15794
1.15794
1.15794
1.15794
1.15794
1.15794
1.15794
1.15794
1.15794
1.15791
1.15791
1.15791
1.15791
1.15791
1.15791
1.15791
1.15791
1.15791
1.15791
1.15791
1.15791
1.15791
1.15791
1.15791
1.15791
1.15791
1.15791
1.15791
1.15791
1.15791
1.15791
1.15791
1.15791
1.15791
1.15791
1.15791
1.15791
1.15791
1.15791
1.15787
1.15787
1.15787
1.15787
1.15787
1.15787
1.15787
1.15787
1.15787
1.15787
1.15787
1.15787
1.15787
1.15787
1.15787
1.15787
1.15787
1.15787
1.15787
1.15787
1.15787
1.15787
1.15787
1.15787
1.15787
1.15787
1.15787
1.15787
1.15787
1.15787
1.15784
1.15784
1.15784
1.15784
1.15784
1.15784
1.15784
1.15784
1.15784
1.15784
1.15784
1.15784
1.15784
1.15784
1.15784
1.15784
1.15784
1.15784
1.15784
1.15784
1.15784
1.15784
1.15784
1.15784
1.15784
1.15784
1.15784
1.15784
1.15784
1.15784
1.1578
1.1578
1.1578
1.1578
1.1578
1.1578
1.1578
1.1578
1.1578
1.1578
1.1578
1.1578
1.1578
1.1578
1.1578
1.1578
1.1578
1.1578
1.1578
1.1578
1.1578
1.1578
1.1578
1.1578
1.1578
1.1578
1.1578
1.1578
1.1578
1.1578
1.15776
1.15776
1.15777
1.15776
1.15776
1.15776
1.15776
1.15776
1.15776
1.15776
1.15776
1.15776
1.15776
1.15776
1.15776
1.15776
1.15776
1.15776
1.15776
1.15776
1.15776
1.15776
1.15776
1.15776
1.15776
1.15776
1.15776
1.15776
1.15776
1.15776
1.15773
1.15773
1.15773
1.15773
1.15773
1.15773
1.15773
1.15773
1.15773
1.15773
1.15773
1.15773
1.15773
1.15773
1.15773
1.15773
1.15773
1.15773
1.15773
1.15773
1.15773
1.15773
1.15773
1.15773
1.15773
1.15773
1.15773
1.15773
1.15773
1.15773
1.15769
1.15769
1.15769
1.15769
1.15769
1.15769
1.15769
1.15769
1.15769
1.15769
1.15769
1.15769
1.15769
1.15769
1.15769
1.15769
1.15769
1.15769
1.15769
1.15769
1.15769
1.15769
1.15769
1.15769
1.15769
1.15769
1.15769
1.15769
1.15769
1.15769
1.15764
1.15764
1.15764
1.15764
1.15764
1.15764
1.15764
1.15764
1.15764
1.15764
1.15764
1.15764
1.15764
1.15764
1.15764
1.15764
1.15764
1.15764
1.15764
1.15764
1.15764
1.15764
1.15764
1.15764
1.15764
1.15764
1.15764
1.15764
1.15764
1.15764
1.1576
1.1576
1.1576
1.1576
1.1576
1.1576
1.1576
1.1576
1.1576
1.1576
1.1576
1.1576
1.1576
1.1576
1.1576
1.1576
1.1576
1.1576
1.1576
1.1576
1.1576
1.1576
1.1576
1.1576
1.1576
1.1576
1.1576
1.1576
1.1576
1.1576
1.15756
1.15756
1.15756
1.15756
1.15756
1.15756
1.15756
1.15756
1.15756
1.15756
1.15756
1.15756
1.15756
1.15756
1.15756
1.15756
1.15756
1.15756
1.15756
1.15756
1.15756
1.15756
1.15756
1.15756
1.15756
1.15756
1.15756
1.15756
1.15756
1.15756
1.15751
1.15751
1.15751
1.15751
1.15751
1.15751
1.15751
1.15751
1.15751
1.15751
1.15751
1.15751
1.15751
1.15751
1.15751
1.15751
1.15751
1.15751
1.15751
1.15751
1.15751
1.15751
1.15751
1.15751
1.15751
1.15751
1.15751
1.15751
1.15751
1.15751
1.15746
1.15746
1.15746
1.15746
1.15746
1.15746
1.15746
1.15746
1.15746
1.15746
1.15746
1.15746
1.15746
1.15746
1.15746
1.15746
1.15746
1.15746
1.15746
1.15746
1.15746
1.15746
1.15746
1.15746
1.15746
1.15746
1.15746
1.15746
1.15746
1.15746
1.15741
1.15741
1.15741
1.15741
1.15741
1.15741
1.15741
1.15741
1.15741
1.15741
1.15741
1.15741
1.15741
1.15741
1.15741
1.15741
1.15741
1.15741
1.15741
1.15741
1.15741
1.15741
1.15741
1.15741
1.15741
1.15741
1.15741
1.15741
1.15741
1.15741
1.15736
1.15736
1.15736
1.15736
1.15736
1.15736
1.15736
1.15736
1.15736
1.15736
1.15736
1.15736
1.15736
1.15736
1.15736
1.15736
1.15736
1.15736
1.15736
1.15736
1.15736
1.15736
1.15736
1.15736
1.15736
1.15736
1.15736
1.15736
1.15736
1.15736
1.15731
1.15731
1.15731
1.15731
1.15731
1.15731
1.15731
1.15731
1.15731
1.15731
1.15731
1.15731
1.15731
1.15731
1.15731
1.15731
1.15731
1.15731
1.15731
1.15731
1.15731
1.15731
1.15731
1.15731
1.15731
1.15731
1.15731
1.15731
1.15731
1.15731
1.15726
1.15726
1.15726
1.15726
1.15726
1.15726
1.15726
1.15726
1.15726
1.15726
1.15726
1.15726
1.15726
1.15726
1.15726
1.15726
1.15726
1.15726
1.15726
1.15726
1.15726
1.15726
1.15726
1.15726
1.15726
1.15726
1.15726
1.15726
1.15726
1.15726
1.1572
1.1572
1.1572
1.1572
1.1572
1.1572
1.1572
1.1572
1.1572
1.1572
1.1572
1.1572
1.1572
1.1572
1.1572
1.1572
1.1572
1.1572
1.1572
1.1572
1.1572
1.1572
1.1572
1.1572
1.1572
1.1572
1.1572
1.1572
1.1572
1.1572
1.15714
1.15714
1.15715
1.15715
1.15715
1.15715
1.15715
1.15714
1.15714
1.15714
1.15714
1.15714
1.15714
1.15714
1.15714
1.15714
1.15714
1.15714
1.15714
1.15714
1.15714
1.15714
1.15714
1.15714
1.15714
1.15714
1.15714
1.15714
1.15714
1.15714
1.15709
1.15709
1.15709
1.15709
1.15709
1.15709
1.15709
1.15709
1.15709
1.15709
1.15709
1.15709
1.15709
1.15709
1.15709
1.15709
1.15709
1.15709
1.15709
1.15709
1.15709
1.15709
1.15709
1.15709
1.15709
1.15709
1.15709
1.15709
1.15709
1.15709
1.15702
1.15702
1.15702
1.15702
1.15702
1.15702
1.15702
1.15702
1.15702
1.15702
1.15702
1.15702
1.15702
1.15702
1.15702
1.15702
1.15702
1.15702
1.15702
1.15702
1.15702
1.15702
1.15702
1.15702
1.15702
1.15702
1.15702
1.15702
1.15702
1.15702
1.15696
1.15696
1.15696
1.15696
1.15696
1.15696
1.15696
1.15696
1.15696
1.15696
1.15696
1.15696
1.15696
1.15696
1.15696
1.15696
1.15696
1.15696
1.15696
1.15696
1.15696
1.15696
1.15696
1.15696
1.15696
1.15696
1.15696
1.15696
1.15696
1.15696
1.1569
1.1569
1.1569
1.1569
1.1569
1.1569
1.1569
1.1569
1.1569
1.1569
1.1569
1.1569
1.1569
1.1569
1.1569
1.1569
1.1569
1.1569
1.1569
1.1569
1.1569
1.1569
1.1569
1.1569
1.1569
1.1569
1.1569
1.1569
1.1569
1.1569
1.15683
1.15683
1.15683
1.15683
1.15683
1.15683
1.15683
1.15683
1.15683
1.15683
1.15683
1.15683
1.15683
1.15683
1.15683
1.15683
1.15683
1.15683
1.15683
1.15683
1.15683
1.15683
1.15683
1.15683
1.15683
1.15683
1.15683
1.15683
1.15683
1.15683
1.15676
1.15676
1.15676
1.15676
1.15676
1.15676
1.15676
1.15676
1.15676
1.15676
1.15676
1.15676
1.15676
1.15676
1.15676
1.15676
1.15676
1.15676
1.15676
1.15676
1.15676
1.15676
1.15676
1.15676
1.15676
1.15676
1.15676
1.15676
1.15676
1.15676
1.15669
1.15669
1.15669
1.15669
1.15669
1.15669
1.15669
1.15669
1.15669
1.15669
1.15669
1.15669
1.15669
1.15669
1.15669
1.15669
1.15669
1.15669
1.15669
1.15669
1.15669
1.15669
1.15669
1.15669
1.15669
1.15669
1.15669
1.15669
1.15669
1.15669
1.15858
1.15853
1.15847
1.15838
1.15826
1.15812
1.15795
1.15778
1.15759
1.15741
1.15723
1.15707
1.15693
1.15679
1.15666
1.15653
1.15639
1.15627
1.15616
1.15606
1.156
1.15598
1.15598
1.156
1.15603
1.15607
1.15611
1.15616
1.15621
1.15626
1.1563
1.15635
1.15638
1.1564
1.15642
1.15641
1.15638
1.15629
1.15598
1.15477
1.15861
1.15861
1.1586
1.1586
1.15859
1.15857
1.15855
1.15851
1.15847
1.1584
1.15831
1.1582
1.15806
1.1579
1.15772
1.15753
1.15734
1.15716
1.15699
1.15684
1.15672
1.15665
1.15661
1.15659
1.15659
1.1566
1.15661
1.15664
1.15666
1.15669
1.15671
1.15673
1.15674
1.15675
1.15675
1.15673
1.15669
1.15662
1.15645
1.15608
1.1586
1.1586
1.1586
1.1586
1.15859
1.15859
1.15859
1.15858
1.15858
1.15856
1.15854
1.15851
1.15846
1.1584
1.1583
1.15818
1.15804
1.15787
1.15769
1.15752
1.15738
1.15728
1.15721
1.15716
1.15713
1.15711
1.1571
1.1571
1.15711
1.15711
1.15712
1.15712
1.15712
1.15711
1.15709
1.15706
1.15702
1.15696
1.15687
1.15675
1.15859
1.15859
1.15859
1.15858
1.15858
1.15858
1.15858
1.15858
1.15858
1.15858
1.15857
1.15856
1.15855
1.15853
1.1585
1.15845
1.15838
1.15828
1.15817
1.15803
1.15791
1.15781
1.15772
1.15766
1.15761
1.15758
1.15756
1.15754
1.15753
1.15752
1.15751
1.15749
1.15748
1.15746
1.15744
1.1574
1.15736
1.15731
1.15725
1.1572
1.15857
1.15857
1.15857
1.15857
1.15857
1.15857
1.15857
1.15857
1.15857
1.15857
1.15857
1.15857
1.15856
1.15855
1.15854
1.15852
1.1585
1.15845
1.1584
1.15832
1.15824
1.15817
1.15811
1.15805
1.158
1.15797
1.15794
1.15791
1.15789
1.15787
1.15785
1.15783
1.15781
1.15779
1.15776
1.15773
1.15769
1.15764
1.1576
1.15756
1.15856
1.15856
1.15856
1.15856
1.15856
1.15856
1.15856
1.15856
1.15856
1.15856
1.15856
1.15856
1.15856
1.15855
1.15855
1.15854
1.15853
1.15851
1.15848
1.15845
1.15841
1.15837
1.15833
1.15829
1.15826
1.15823
1.1582
1.15818
1.15816
1.15814
1.15812
1.1581
1.15808
1.15806
1.15803
1.158
1.15797
1.15794
1.15791
1.15788
1.15855
1.15855
1.15855
1.15855
1.15855
1.15855
1.15855
1.15855
1.15855
1.15855
1.15855
1.15855
1.15855
1.15854
1.15854
1.15854
1.15853
1.15852
1.15851
1.15849
1.15847
1.15845
1.15843
1.15841
1.15839
1.15837
1.15836
1.15834
1.15833
1.15831
1.1583
1.15828
1.15827
1.15825
1.15823
1.15821
1.15819
1.15816
1.15814
1.15812
1.15853
1.15853
1.15853
1.15853
1.15853
1.15853
1.15853
1.15853
1.15853
1.15853