/*--------------------------------*- C++ -*----------------------------------*\
| =========                 |                                                 |
| \\      /  F ield         | OpenFOAM: The Open Source CFD Toolbox           |
|  \\    /   O peration     | Version:  2.2.0                                 |
|   \\  /    A nd           | Web:      www.OpenFOAM.org                      |
|    \\/     M anipulation  |                                                 |
\*---------------------------------------------------------------------------*/
FoamFile
{
    version     2.0;
    format      ascii;
    class       volScalarField;
    location    "1000";
    object      T;
}
// * * * * * * * * * * * * * * * * * * * * * * * * * * * * * * * * * * * * * //

dimensions      [0 0 0 1 0 0 0];

internalField   nonuniform List<scalar> 
7600
(
301.191
301.258
301.291
301.311
301.323
301.329
301.331
301.329
301.324
301.316
301.305
301.291
301.276
301.26
301.243
301.229
301.224
301.247
301.331
301.53
301.845
302.14
302.32
302.418
302.47
302.494
302.498
302.487
302.466
302.441
302.412
302.382
302.349
302.314
302.277
302.238
302.198
302.164
302.214
303.463
301.326
301.387
301.412
301.425
301.431
301.433
301.431
301.426
301.419
301.409
301.397
301.382
301.365
301.346
301.328
301.315
301.318
301.359
301.474
301.706
302.033
302.316
302.495
302.596
302.653
302.681
302.687
302.678
302.658
302.63
302.597
302.56
302.52
302.478
302.434
302.389
302.348
302.334
302.47
303.815
301.379
301.445
301.469
301.478
301.48
301.478
301.473
301.466
301.457
301.445
301.431
301.415
301.397
301.378
301.361
301.353
301.366
301.424
301.563
301.817
302.14
302.405
302.581
302.685
302.743
302.771
302.777
302.766
302.742
302.711
302.674
302.634
302.591
302.546
302.5
302.454
302.419
302.431
302.631
304.058
301.416
301.488
301.511
301.518
301.518
301.513
301.506
301.496
301.485
301.471
301.455
301.438
301.42
301.401
301.387
301.385
301.41
301.487
301.651
301.924
302.235
302.487
302.657
302.762
302.822
302.85
302.854
302.84
302.811
302.774
302.732
302.686
302.639
302.59
302.541
302.497
302.472
302.51
302.761
304.256
301.447
301.524
301.546
301.552
301.55
301.544
301.535
301.524
301.511
301.496
301.479
301.46
301.442
301.425
301.415
301.422
301.462
301.562
301.754
302.035
302.335
302.575
302.736
302.841
302.902
302.932
302.934
302.915
302.88
302.835
302.786
302.733
302.679
302.626
302.575
302.534
302.519
302.582
302.876
304.433
301.476
301.556
301.577
301.582
301.58
301.574
301.564
301.552
301.537
301.521
301.503
301.485
301.467
301.453
301.449
301.468
301.527
301.655
301.871
302.155
302.443
302.669
302.821
302.921
302.984
303.016
303.019
302.997
302.954
302.9
302.84
302.779
302.718
302.66
302.607
302.569
302.566
302.652
302.984
304.603
301.504
301.586
301.607
301.611
301.609
301.602
301.592
301.58
301.565
301.549
301.531
301.513
301.497
301.488
301.494
301.528
301.612
301.769
302.001
302.283
302.558
302.768
302.908
303.001
303.064
303.101
303.107
303.083
303.034
302.968
302.898
302.827
302.758
302.693
302.639
302.605
302.615
302.722
303.089
304.773
301.531
301.615
301.635
301.64
301.637
301.631
301.622
301.609
301.595
301.579
301.562
301.547
301.535
301.534
301.552
301.607
301.72
301.9
302.144
302.419
302.675
302.865
302.99
303.076
303.138
303.178
303.193
303.172
303.119
303.042
302.958
302.876
302.798
302.729
302.674
302.645
302.667
302.795
303.194
304.948
301.558
301.643
301.663
301.668
301.667
301.661
301.653
301.642
301.629
301.615
301.6
301.589
301.584
301.593
301.63
301.71
301.848
302.047
302.294
302.556
302.788
302.952
303.059
303.136
303.198
303.245
303.269
303.26
303.209
303.123
303.023
302.928
302.841
302.766
302.711
302.689
302.724
302.871
303.305
305.132
301.585
301.672
301.692
301.698
301.697
301.693
301.687
301.678
301.667
301.656
301.647
301.642
301.647
301.673
301.731
301.835
301.994
302.204
302.445
302.685
302.885
303.018
303.104
303.173
303.237
303.294
303.332
303.34
303.304
303.214
303.097
302.986
302.889
302.809
302.755
302.739
302.787
302.955
303.423
305.327
301.613
301.701
301.722
301.729
301.73
301.729
301.725
301.719
301.713
301.707
301.705
301.71
301.729
301.774
301.854
301.979
302.152
302.362
302.587
302.793
302.953
303.051
303.115
303.178
303.248
303.319
303.378
303.409
303.395
303.326
303.199
303.062
302.949
302.863
302.809
302.8
302.86
303.05
303.554
305.537
301.642
301.731
301.754
301.762
301.766
301.767
301.767
301.767
301.766
301.769
301.777
301.795
301.831
301.895
301.994
302.134
302.311
302.509
302.703
302.865
302.976
303.037
303.082
303.142
303.222
303.313
303.399
303.464
303.486
303.451
303.348
303.188
303.042
302.941
302.883
302.878
302.95
303.16
303.701
305.762
301.674
301.763
301.787
301.798
301.806
301.811
301.817
301.823
301.831
301.845
301.865
301.898
301.951
302.031
302.143
302.287
302.454
302.625
302.776
302.884
302.942
302.968
302.997
303.057
303.149
303.261
303.38
303.489
303.565
303.587
303.536
303.406
303.216
303.075
302.999
302.991
303.071
303.299
303.875
306.009
301.707
301.797
301.823
301.838
301.85
301.861
301.874
301.889
301.908
301.933
301.965
302.012
302.079
302.169
302.285
302.42
302.562
302.692
302.787
302.835
302.842
302.838
302.854
302.914
303.015
303.146
303.297
303.454
303.596
303.7
303.74
303.692
303.548
303.337
303.211
303.177
303.251
303.491
304.095
306.286
301.741
301.833
301.863
301.882
301.899
301.917
301.938
301.963
301.991
302.026
302.07
302.127
302.201
302.293
302.4
302.512
302.616
302.692
302.726
302.715
302.677
302.649
302.654
302.711
302.812
302.952
303.124
303.32
303.525
303.72
303.88
303.973
303.966
303.844
303.63
303.523
303.559
303.791
304.407
306.628
301.776
301.871
301.905
301.929
301.952
301.977
302.005
302.036
302.072
302.114
302.166
302.228
302.301
302.384
302.47
302.548
302.603
302.622
302.597
302.536
302.462
302.414
302.411
302.457
302.548
302.679
302.85
303.059
303.301
303.567
303.84
304.094
304.296
304.402
304.377
304.221
304.156
304.33
304.916
307.073
301.811
301.909
301.947
301.976
302.003
302.032
302.063
302.099
302.14
302.187
302.24
302.3
302.365
302.43
302.486
302.523
302.529
302.495
302.423
302.325
302.226
302.164
302.156
302.188
302.255
302.357
302.499
302.683
302.914
303.193
303.519
303.883
304.269
304.647
304.976
305.2
305.269
305.334
305.822
307.738
301.844
301.943
301.982
302.011
302.04
302.071
302.106
302.145
302.188
302.236
302.286
302.339
302.389
302.43
302.455
302.453
302.417
302.344
302.241
302.124
302.017
301.953
301.94
301.955
301.992
302.052
302.141
302.264
302.432
302.653
302.936
303.289
303.717
304.222
304.799
305.436
306.107
306.772
307.441
308.974
301.85
301.956
301.998
302.03
302.061
302.094
302.13
302.17
302.213
302.259
302.304
302.346
302.38
302.4
302.397
302.365
302.3
302.204
302.089
301.971
301.874
301.82
301.808
301.812
301.822
301.841
301.873
301.923
302.002
302.119
302.286
302.516
302.822
303.219
303.725
304.36
305.159
306.172
307.518
309.7
301.845
301.957
302.002
302.035
302.067
302.101
302.138
302.177
302.218
302.26
302.3
302.333
302.355
302.358
302.336
302.285
302.204
302.1
301.986
301.882
301.807
301.774
301.77
301.77
301.769
301.764
301.758
301.755
301.761
301.787
301.843
301.942
302.098
302.326
302.648
303.091
303.703
304.576
305.919
308.452
301.832
301.95
301.996
302.03
302.062
302.096
302.131
302.169
302.209
302.248
302.284
302.313
302.328
302.324
302.293
302.234
302.148
302.043
301.936
301.845
301.79
301.777
301.783
301.789
301.79
301.783
301.766
301.741
301.71
301.681
301.666
301.679
301.735
301.85
302.045
302.348
302.808
303.525
304.765
307.574
301.815
301.937
301.984
302.018
302.05
302.082
302.117
302.153
302.191
302.229
302.264
302.291
302.306
302.301
302.271
302.212
302.127
302.025
301.922
301.838
301.791
301.786
301.798
301.81
301.818
301.82
301.811
301.788
301.749
301.697
301.643
301.603
301.596
301.64
301.756
301.972
302.336
302.948
304.088
306.957
301.795
301.92
301.969
302.003
302.034
302.065
302.098
302.133
302.17
302.207
302.241
302.269
302.286
302.285
302.259
302.206
302.127
302.031
301.934
301.854
301.811
301.803
301.812
301.825
301.836
301.842
301.841
301.828
301.797
301.742
301.67
301.598
301.55
301.545
301.607
301.764
302.06
302.593
303.639
306.483
301.775
301.901
301.951
301.985
302.015
302.045
302.077
302.111
302.146
302.182
302.216
302.245
302.264
302.268
302.249
302.205
302.135
302.049
301.961
301.888
301.847
301.835
301.837
301.846
301.855
301.86
301.86
301.851
301.828
301.781
301.705
301.614
301.537
301.497
301.519
301.63
301.874
302.343
303.308
306.086
301.754
301.881
301.931
301.965
301.995
302.024
302.054
302.087
302.121
302.155
302.189
302.218
302.24
302.249
302.238
302.203
302.146
302.073
301.995
301.93
301.89
301.876
301.873
301.875
301.879
301.881
301.878
301.869
301.847
301.804
301.73
301.632
301.535
301.468
301.458
301.532
301.732
302.147
303.039
305.733
301.734
301.86
301.91
301.944
301.973
302.001
302.031
302.062
302.094
302.128
302.16
302.191
302.214
302.227
302.223
302.199
302.155
302.094
302.029
301.972
301.935
301.918
301.911
301.908
301.906
301.903
301.897
301.885
301.863
301.82
301.745
301.643
301.535
301.449
301.413
301.455
301.617
301.983
302.806
305.405
301.713
301.838
301.888
301.922
301.951
301.978
302.006
302.036
302.067
302.099
302.131
302.161
302.186
302.202
302.205
302.19
302.158
302.111
302.057
302.008
301.975
301.956
301.946
301.938
301.931
301.923
301.913
301.898
301.874
301.829
301.753
301.647
301.531
301.432
301.376
301.391
301.518
301.839
302.596
305.092
301.692
301.816
301.866
301.9
301.928
301.955
301.982
302.01
302.04
302.071
302.102
302.131
302.157
302.176
302.183
302.176
302.154
302.119
302.077
302.036
302.006
301.986
301.973
301.962
301.951
301.939
301.926
301.908
301.88
301.832
301.753
301.644
301.524
301.416
301.345
301.338
301.434
301.71
302.401
304.79
301.671
301.794
301.844
301.877
301.905
301.931
301.957
301.984
302.013
302.042
302.072
302.101
302.126
302.147
302.158
302.157
302.144
302.119
302.086
302.053
302.025
302.006
301.991
301.977
301.964
301.95
301.933
301.911
301.878
301.825
301.743
301.633
301.511
301.397
301.315
301.29
301.36
301.598
302.221
304.494
301.651
301.772
301.822
301.855
301.882
301.907
301.932
301.958
301.985
302.013
302.042
302.07
302.095
302.116
302.129
302.134
302.127
302.11
302.086
302.059
302.035
302.015
301.999
301.985
301.97
301.953
301.933
301.906
301.866
301.806
301.719
301.61
301.489
301.374
301.285
301.246
301.294
301.498
302.063
304.203
301.631
301.751
301.8
301.833
301.859
301.884
301.908
301.933
301.959
301.985
302.012
302.039
302.063
302.084
302.099
302.107
302.105
302.095
302.077
302.056
302.034
302.016
301.999
301.983
301.966
301.947
301.922
301.887
301.837
301.769
301.68
301.573
301.457
301.345
301.253
301.204
301.233
301.406
301.917
303.926
301.613
301.732
301.78
301.812
301.838
301.862
301.885
301.909
301.933
301.958
301.984
302.009
302.032
302.053
302.069
302.079
302.081
302.075
302.062
302.045
302.026
302.007
301.989
301.97
301.949
301.923
301.889
301.843
301.784
301.709
301.62
301.519
301.412
301.306
301.215
301.16
301.174
301.32
301.781
303.664
301.597
301.716
301.762
301.793
301.818
301.841
301.863
301.886
301.909
301.933
301.957
301.981
302.003
302.023
302.039
302.049
302.053
302.05
302.04
302.025
302.006
301.984
301.961
301.935
301.905
301.868
301.822
301.765
301.699
301.624
301.539
301.448
301.351
301.255
301.17
301.114
301.118
301.241
301.655
303.417
301.585
301.702
301.746
301.775
301.8
301.822
301.844
301.865
301.888
301.91
301.933
301.955
301.975
301.993
302.007
302.016
302.02
302.016
302.006
301.988
301.962
301.933
301.899
301.861
301.818
301.769
301.714
301.653
301.587
301.516
301.439
301.359
301.276
301.192
301.117
301.064
301.061
301.165
301.537
303.181
301.58
301.691
301.732
301.76
301.784
301.806
301.827
301.848
301.869
301.889
301.909
301.927
301.943
301.955
301.964
301.968
301.966
301.957
301.939
301.911
301.873
301.83
301.784
301.736
301.685
301.63
301.573
301.515
301.454
301.39
301.324
301.256
301.187
301.118
301.055
301.008
301.003
301.091
301.424
302.955
301.579
301.682
301.721
301.748
301.77
301.791
301.812
301.831
301.848
301.863
301.876
301.884
301.888
301.888
301.883
301.873
301.858
301.837
301.807
301.767
301.719
301.67
301.621
301.57
301.518
301.466
301.414
301.362
301.309
301.255
301.2
301.145
301.089
301.035
300.984
300.947
300.942
301.018
301.315
302.733
301.58
301.675
301.711
301.736
301.758
301.776
301.792
301.804
301.809
301.806
301.796
301.78
301.759
301.735
301.711
301.687
301.662
301.635
301.603
301.564
301.519
301.474
301.429
301.383
301.337
301.293
301.248
301.205
301.16
301.116
301.072
301.029
300.986
300.945
300.907
300.88
300.878
300.944
301.206
302.508
301.58
301.667
301.698
301.718
301.731
301.735
301.727
301.707
301.676
301.637
301.595
301.552
301.512
301.477
301.447
301.423
301.402
301.381
301.359
301.331
301.299
301.265
301.229
301.192
301.156
301.12
301.085
301.05
301.015
300.98
300.945
300.912
300.881
300.852
300.826
300.808
300.81
300.866
301.089
302.262
301.561
301.629
301.639
301.622
301.588
301.543
301.489
301.431
301.371
301.315
301.263
301.219
301.184
301.158
301.139
301.127
301.12
301.114
301.108
301.096
301.08
301.06
301.035
301.009
300.983
300.957
300.93
300.903
300.876
300.849
300.824
300.799
300.777
300.758
300.742
300.732
300.735
300.777
300.947
301.926
301.368
301.332
301.274
301.209
301.137
301.065
300.998
300.94
300.892
300.855
300.831
300.818
300.813
300.816
300.822
300.832
300.844
300.856
300.868
300.874
300.874
300.866
300.855
300.84
300.823
300.805
300.786
300.767
300.747
300.728
300.71
300.693
300.679
300.667
300.659
300.654
300.659
300.692
300.82
301.606
300
300
300
300
300
300
300
300
300
300
300
300
300
300
300
300
300
300
300
300
300
300
300
300
300
300
300
300
300
300.001
300
300
300
300
300
300
300
300
300
300
300
300
300
300
300
300
300
300
300
300
300
300
300
300
300
300
300
300
300
300
300
300
300
300
300
300
300
300
300
300
300
300
300
300
300
300
300
300
300
300
300
300
300
300
300
300
300
300
300
300
300
300
300
300
300
300
300
300
300
300
300
300
300
300
300
300
300
300
300
300
300
300
300
300
300
300
300
300
300
300
300
300
300
300
300
300
300
300
300
300
300
300
300
300
300
300
300
300
300
300
300
300
300
300
300
300
300
300
300
300
300
300
300
300
300
300
300
300
300
300
300
300
300
300
300
300
300
300
300
300
300
300
300
300
300
300
300
300
300
300
300
300
300
300
300
300
300
300
300
300
300
300
300
300
300
300
300
300
300
300
300
300
300
300
300
300
300
300
300
300
300
300
300
300
300
300
300
300
300
300
300
300
300
300
300
300
300
300
300
300
300
300
300
300
300
300
300
300
300
300
300
300
300
300
300
300
300
300
300
300
300
300
300
300
300
300
300
300
300
300
300
300
300
300
300
300
300
300
300
300
300
300
300
300
300
300
300
300
300
300
300
300
300
300
300
300
300
300
300
300
300
300
300
300
300
300
300
300
300
300
300
300
300
300
300
300
300
300
300
300
300
300
300
300
300
300
300
300
300
300
300
300
300
300
300
300
300
300
300
300
300
300
300
300
300
300
300
300
300
300
300
300
300
300
300
300
300
300
300
300
300
300
300
300
300
300
300
300
300
300
300
300
300
300
300
300
300
300
300
300
300
300
300
300
300
300
300
300
300
300
300
300
300
300
300
300
300
300
300
300
300
300
300
300
300
300
300
300
300
300
300
300
300
300
300
300
300
300
300
300
300
300
300
300
300
300
300
300
300
300
300
300
300
300
300
300
300
300
300
300
300
300
300
300
300
300
300
300
300
300
300
300
300
300
300
300
300
300
300
300
300
300
300
300
300
300
300
300
300
300
300
300
300
300
300
300
300
300
300
300
300
300
300
300
300
300
300
300
300
300
300
300
300
300
300
300
300
300
300
300
300
300
300
300
300
300
300
300
300
300
300
300
300
300
300
300
300
300
300
300
300
300
300
300
300
300
300
300
300
300
300
300
300
300
300
300
300
300
300
300
300
300
300
300
300
300
300
300
300
300
300
300
300
300
300
300
300
300
300
300
300
300
300
300
300
300
300
300
300
300
300
300
300
300
300
300
300
300
300
300
300
300
300
300
300
300
300
300
300
300
300
300
300
300
300
300
300
300
300
300
300
300
300
300
300
300
300
300
300
300
300
300
300
300
300
300
300
300
300
300
300
300
300
300
300
300
300
300
300
300
300
300
300
300
300
300
300
300
300
300
300
300
300
300
300
300
300
300
300
300
300
300
300
300
300
300
300
300
300
300
300
300
300
300
300
300
300
300
300
300
300
300
300
300
300
300
300
300
300
300
300
300
300
300
300
300
300
300
300
300
300
300
300
300
300
300
300
300
300
300
300
300
300
300
300
300
300
300
300
300
300
300
300
300
300
300
300
300
300
300
300
300
300
300
300
300
300
300
300
300
300
300
300
300
300
300
300
300
300
300
300
300
300
300
300
300
300
300
300
300
300
300
300
300
300
300
300
300
300
300
300
300
300
300
300
300
300
300
300
300
300
300
300
300
300
300
300
300
300
300
300
300
300
300
300
300
300
300
300
300
300
300
300
300
300
300
300
300
300
300
300
300
300
300
300
300
300
300
300
300
300
300
300
300
300
300
300
300
300
300
300
300
300
300
300
300
300
300
300
300
300
300
300
300
300
300
300
300
300
300
300
300
300
300
300
300
300
300
300
300
300
300
300
300
300
300
300
300
300
300
300
300
300
300
300
300
300
300
300
300
300
300
300
300
300
300
300
300
300
300
300
300
300
300
300
300
300
300
300
300
300
300
300
300
300
300
300
300
300
300
300
300
300
300
300
300
300
300
300
300
300
300
300
300
300
300
300
300
300
300
300
300
300
300
300
300
300
300
300
300
300
300
300
300
300
300
300
300
300
300
300
300
300
300
300
300
300
300
300
300
300
300
300
300
300
300
300
300
300
300
300
300
300
300
300
300
300
300
300
300
300
300
300
300
300
300
300
300
300
300
300
300
300
300
300
300
300
300
300
300
300
300
300
300
300
300
300
300
300
300
300
300
300
300
300
300
300
300
300
300
300
300
300
300
300
300
300
300
300
300
300
300
300
300
300
300
300
300
300
300
300
300
300
300
300
300
300
300
300
300
300
300
300
300
300
300
300
300
300
300
300
300
300
300
300
300
300
300
300
300
300
300
300
300
300
300
300
300
300
300
300
300
300
300
300
300
300
300
300
300
300
300
300
300
300
300
300
300
300
300
300
300
300
300
300
300
300
300
300
300
300
300
300
300
300
300
300
300
300
300
300
300
300
300
300
300
300
300
300
300
300
300
300
300
300
300
300
300
300
300
300
300
300
300
300
300
300
300
300
300
300
300
300
300
300
300
300
300
300
300
300
300
300
300
300
300
300
300
300
300
300
300
300
300
300
300
300
300
300
300
300
300
300
300
300
300
300
300
300
300
300
300
300
300
300
300
300
300
300
300
300
300
300
300
300
300
300
300
300
300
300
300
300
300
300
300
300
300
300
300
300
300
300
300
300
300
300
300
300
300
300
300
300
300
300
300
300
300
300
300
300
300
300
300
300
300
300
300
300
300
300
300
300
300
300
300
300
300
300
300
300
300
300
300
300
300
300
300
300
300
300
300
300
300
300
300
300
300
300
300
300
300
300
300
300
300
300
300
300
300
300
300
300
300
300
300
300
300
300
300
300
300
300
300
300
300
300
300
300
300
300
300
300
300
300
300
300
300
300
300
300
300
300
300
300
300
300
300
300
300
300
300
300
300
300
300
300
300
300
300
300
300
300
300
300
300
300
300
300
300
300
300
300
300
300
300
300
300
300
300
300
300
300
300
300
300
300
300
300
300
300
300
300
300
300
300
300
300
300
300
300
300
300
300
300
300
300
300
300
300
300
300
300
300
300
300
300
300
300
300
300
300
300
300
300
300
300
300
300
300
300
300
300
300
300
300
300
300
300
300
300
300
300
300
300
300
300
300
300
300
300
300
300
300
300
300
300
300
300
300
300
300
300
300
300
300
300
300
300
300
300
300
300
300
300
300
300
300
300
300
300
300
300
300
300
300
300
300
300
300
300
300
300
300
300
300
300
300
300
300
300
300
300
300
300
300
300
300
300
300
300
300
300
300
300
300
300
300
300
300
300
300
300
300
300
300
300
300
300
300
300
300
300
300
300
300
300
300
300
300
300
300
300
300
300
300
300
300
300
300
300
300
300
300
300
300
300
300
300
300
300
300
300
300
300
300
300
300
300
300
300
300
300
300
300
300
300
300
300
300
300
300
300
300
300
300
300
300
300
300
300
300
300
300
300
300
300
300
300
300
300
300
300
300
300
300
300
300
300
300
300
300
300
300
300
300
300
300
300
300
300
300
300
300
300
300
300
300
300
300
300
300
300
300
300
300
300
300
300
300
300
300
300
300
300
300
300
300
300
300
300
300
300
300
300
300
300
300
300
300
300
300
300
300
300
300
300
300
300
300
300
300
300
300
300
300
300
300
300
300
300
300
300
300
300
300
300
300
300
300
300
300
300
300
300
300
300
300
300
300
300
300
300
300
300
300
300
300
300
300
300
300
300
300
300
300
300
300
300
300
300
300
300
300
300
300
300
300
300
300
300
300
300
300
300
300
300
300
300
300
300
300
300
300
300
300
300
300
300
300
300
300
300
300
300
300
300
300
300
300
300
300
300
300
300
300
300
300
300
300
300
300
300
300
300
300
300
300
300
300
300
300
300
300
300
300
300
300
300
300
300
300
300
300
300
300
300
300
300
300
300
300
300
300
300
300
300
300
300
300
300
300
300
300
300
300
300
300
300
300
300
300
300
300
300
300
300
300
300
300
300
300
300
300
300
300
300
300
300
300
300.01
300.023
300.04
300.063
300.094
300.131
300.173
300.219
300.267
300.314
300.359
300.401
300.439
300.474
300.509
300.543
300.577
300.61
300.639
300.663
300.678
300.685
300.685
300.68
300.672
300.662
300.651
300.638
300.626
300.613
300.601
300.591
300.583
300.577
300.574
300.574
300.582
300.608
300.687
301
300
300.001
300.002
300.003
300.006
300.01
300.016
300.025
300.037
300.054
300.077
300.106
300.142
300.184
300.23
300.279
300.328
300.376
300.42
300.459
300.488
300.507
300.518
300.523
300.524
300.522
300.517
300.511
300.505
300.498
300.492
300.488
300.485
300.484
300.485
300.489
300.499
300.518
300.56
300.657
300
300
300
300
300.001
300.001
300.002
300.004
300.006
300.009
300.015
300.023
300.035
300.052
300.076
300.107
300.145
300.188
300.234
300.278
300.314
300.341
300.36
300.373
300.381
300.385
300.387
300.387
300.386
300.385
300.384
300.384
300.385
300.387
300.392
300.4
300.41
300.425
300.447
300.479
300
300
300
300
300
300
300
300.001
300.001
300.002
300.004
300.006
300.009
300.015
300.023
300.036
300.054
300.078
300.108
300.142
300.175
300.201
300.222
300.239
300.251
300.26
300.266
300.271
300.274
300.277
300.28
300.284
300.287
300.292
300.299
300.308
300.319
300.331
300.345
300.36
300
300
300
300
300
300
300
300
300
300.001
300.001
300.002
300.003
300.005
300.008
300.013
300.02
300.03
300.045
300.064
300.085
300.104
300.12
300.135
300.147
300.157
300.165
300.172
300.177
300.183
300.188
300.192
300.198
300.204
300.212
300.221
300.231
300.241
300.251
300.261
300
300
300
300
300
300
300
300
300
300
300
300.001
300.001
300.002
300.003
300.005
300.008
300.013
300.019
300.029
300.039
300.05
300.06
300.069
300.078
300.085
300.092
300.098
300.104
300.109
300.114
300.119
300.124
300.13
300.137
300.145
300.153
300.161
300.169
300.176
300
300
300
300
300
300
300
300
300
300
300
300
300
300.001
300.001
300.002
300.004
300.006
300.009
300.013
300.019
300.024
300.03
300.035
300.04
300.045
300.049
300.053
300.057
300.061
300.065
300.068
300.073
300.077
300.082
300.088
300.094
300.099
300.105
300.109
300
300
300
300
300
300
300
300
300
300
300
300
300
300
300.001
300.001
300.002
300.003
300.004
300.007
300.009
300.012
300.015
300.018
300.021
300.024
300.026
300.029
300.031
300.034
300.036
300.039
300.041
300.044
300.047
300.051
300.054
300.057
300.061
300.064
300
300
300
300
300
300
300
300
300
300
300
300
300
300
300
300
300.001
300.001
300.002
300.003
300.005
300.007
300.008
300.01
300.012
300.013
300.015
300.016
300.018
300.019
300.02
300.022
300.024
300.025
300.027
300.029
300.031
300.033
300.034
300.036
300
300
300
300
300
300
300
300
300
300
300
300
300
300
300
300
300
300.001
300.001
300.002
300.003
300.004
300.005
300.006
300.006
300.007
300.008
300.009
300.01
300.011
300.012
300.013
300.014
300.015
300.016
300.017
300.018
300.019
300.02
300.021
300
300
300
300
300
300
300
300
300
300
300
300
300
300
300
300
300
300
300
300.001
300.001
300.002
300.003
300.003
300.004
300.004
300.005
300.005
300.006
300.007
300.007
300.008
300.008
300.009
300.009
300.01
300.011
300.011
300.012
300.012
300
300
300
300
300
300
300
300
300
300
300
300
300
300
300
300
300
300
300
300
300.001
300.001
300.001
300.002
300.002
300.002
300.003
300.003
300.004
300.004
300.004
300.005
300.005
300.005
300.006
300.006
300.006
300.007
300.007
300.007
300
300
300
300
300
300
300
300
300
300
300
300
300
300
300
300
300
300
300
300
300
300.001
300.001
300.001
300.001
300.001
300.002
300.002
300.002
300.002
300.003
300.003
300.003
300.003
300.003
300.004
300.004
300.004
300.004
300.004
300
300
300
300
300
300
300
300
300
300
300
300
300
300
300
300
300
300
300
300
300
300
300
300
300.001
300.001
300.001
300.001
300.001
300.001
300.002
300.002
300.002
300.002
300.002
300.002
300.002
300.002
300.002
300.002
300
300
300
300
300
300
300
300
300
300
300
300
300
300
300
300
300
300
300
300
300
300
300
300
300
300
300.001
300.001
300.001
300.001
300.001
300.001
300.001
300.001
300.001
300.001
300.001
300.001
300.001
300.001
300
300
300
300
300
300
300
300
300
300
300
300
300
300
300
300
300
300
300
300
300
300
300
300
300
300
300
300
300
300
300
300.001
300.001
300.001
300.001
300.001
300.001
300.001
300.001
300.001
300
300
300
300
300
300
300
300
300
300
300
300
300
300
300
300
300
300
300
300
300
300
300
300
300
300
300
300
300
300
300
300
300
300
300
300
300
300
300
300
300
300
300
300
300
300
300
300
300
300
300
300
300
300
300
300
300
300
300
300
300
300
300
300
300
300
300
300
300
300
300
300
300
300
300
300
300
300
300
300
300
300
300
300
300
300
300
300
300
300
300
300
300
300
300
300
300
300
300
300
300
300
300
300
300
300
300
300
300
300
300
300
300
300
300
300
300
300
300
300
300
300
300
300
300
300
300
300
300
300
300
300
300
300
300
300
300
300
300
300
300
300
300
300
300
300
300
300
300
300
300
300
300
300
300
300
300
300
300
300
300
300
300
300
300
300
300
300
300
300
300
300
300
300
300
300
300
300
300
300
300
300
300
300
300
300
300
300
300
300
300
300
300
300
300
300
300
300
300
300
300
300
300
300
300
300
300
300
300
300
300
300
300
300
300
300
300
300
300
300
300
300
300
300
300
300
300
300
300
300
300
300
300
300
300
300
300
300
300
300
300
300
300
300
300
300
300
300
300
300
300
300
300
300
300
300
300
300
300
300
300
300
300
300
300
300
300
300
300
300
300
300
300
300
300
300
300
300
300
300
300
300
300
300
300
300
300
300
300
300
300
300
300
300
300
300
300
300
300
300
300
300
300
300
300
300
300
300
300
300
300
300
300
300
300
300
300
300
300
300
300
300
300
300
300
300
300
300
300
300
300
300
300
300
300
300
300
300
300
300
300
300
300
300
300
300
300
300
300
300
300
300
300
300
300
300
300
300
300
300
300
300
300
300
300
300
300
300
300
300
300
300
300
300
300
300
300
300
300
300
300
300
300
300
300
300
300
300
300
300
300
300
300
300
300
300
300
300
300
300
300
300
300
300
300
300
300
300
300
300
300
300
300
300
300
300
300
300
300
300
300
300
300
300
300
300
300
300
300
300
300
300
300
300
300
300
300
300
300
300
300
300
300
300
300
300
300
300
300
300
300
300
300
300
300
300
300
300
300
300
300
300
300
300
300
300
300
300
300
300
300
300
300
300
300
300
300
300
300
300
300
300
300
300
300
300
300
300
300
300
300
300
300
300
300
300
300
300
300
300
300
300
300
300
300
300
300
300
300
300
300
300
300
300
300
300
300
300
300
300
300
300
300
300
300
300
300
300
300
300
300
300
300
300
300
300
300
300
300
300
300
300
300
300
300
300
300
300
300
300
300
300
300
300
300
300
300
300
300
300
300
300
300
300
300
300
300
300
300
300
300
300
300
300
300
300
300
300
300
300
300
300
300
300
300
300
300
300
300
300
300
300
300
300
300
300
300
300
300
300
300
300
300
300
300
300
300
300
300
300
300
300
300
300
300
300
300
300
300
300
300
300
300
300
300
300
300
300
300
300
300
300
300
300
300
300
300
300
300
300
300
300
300
300
300
300
300
300
300
300
300
300
300
300
300
300
300
300
300
300
300
300
300
300
300
300
300
300
300
300
300
300
300
300
300
300
300
300
300
300
300
300
300
300
300
300
300
300
300
300
300
300
300
300
300
300
300
300
300
300
300
300
300
300
300
300
300
300
300
300
300
300
300
300
300
300
300
300
300
300
300
300
300
300
300
300
300
300
300
300
300
300
300
300
300
300
300
300
300
300
300
300
300
300
300
300
300
300
300
300
300
300
300
300
300
300
300
300
300
300
300
300
300
300
300
300
300
300
300
300
300
300
300
300
300
300
300
300
300
300
300
300
300
300
300
300
300
300
300
300
300
300
300
300
300
300
300
300
300
300
300
300
300
300
300
300
300
300
300
300
300
300
300
300
300
300
300
300
300
300
300
300
300
300
300
300
300
300
300
300
300
300
300
300
300
300
300
300
300
300
300
300
300
300
300
300
300
300
300
300
300
300
300
300
300
300
300
300
300
300
300
300
300
300
300
300
300
300
300
300
300
300
300
300
300
300
300
300
300
300
300
300
300
300
300
300
300
300
300
300
300
300
300
300
300
300
300
300
300
300
300
300
300
300
300
300
300
300
300
300
300
300
300
300
300
300
300
300
300
300
300
300
300
300
300
300
300
300
300
300
300
300
300
300
300
300
300
300
300
300
300
300
300
300
300
300
300
300
300
300
300
300
300
300
300
300
300
300
300
300
300
300
300
300
300
300
300
300
300
300
300
300
300
300
300
300
300
300
300
300
300
300
300
300
300
300
300
300
300
300
300
300
300
300
300
300
300
300
300
300
300
300
300
300
300
300
300
300
300
300
300
300
300
300
300
300
300
300
300
300
300
300
300
300
300
300
300
300
300
300
300
300
300
300
300
300
300
300
300
300
300
300
300
300
300
300
300
300
300
300
300
300
300
300
300
300
300
300
300
300
300
300
300
300
300
300
300
300
300
300
300
300
300
300
300
300
300
300
300
300
300
300
300
300
300
300
300
300
300
300
300
300
300
300
300
300
300
300
300
300
300
300
300
300
300
300
300
300
300
300
300
300
300
300
300
300
300
300
300
300
300
300
300
300
300
300
300
300
300
300
300
300
300
300
300
300
300
300
300
300
300
300
300
300
300
300
300
300
300
300
300
300
300
300
300
300
300
300
300
300
300
300
300
300
300
300
300
300
300
300
300
300
300
300
300
300
300
300
300
300
300
300
300
300
300
300
300
300
300
300
300
300
300
300
300
300
300
300
300
300
300
300
300
300
300
300
300
300
300
300
300
300
300
300
300
300
300
300
300
300
300
300
300
300
300
300
300
300
300
300
300
300
300
300
300
300
300
300
300
300
300
300
300
300
300
300
300
300
300
300
300
300
300
300
300
300
300
300
300
300
300
300
300
300
300
300
300
300
300
300
300
300
300
300
300
300
300
300
300
300
300
300
300
300
300
300
300
300
300
300