/*--------------------------------*- C++ -*----------------------------------*\
| =========                 |                                                 |
| \\      /  F ield         | OpenFOAM: The Open Source CFD Toolbox           |
|  \\    /   O peration     | Version:  2.2.0                                 |
|   \\  /    A nd           | Web:      www.OpenFOAM.org                      |
|    \\/     M anipulation  |                                                 |
\*---------------------------------------------------------------------------*/
FoamFile
{
    version     2.0;
    format      ascii;
    class       volVectorField;
    location    "1000";
    object      U;
}
// * * * * * * * * * * * * * * * * * * * * * * * * * * * * * * * * * * * * * //

dimensions      [0 1 -1 0 0 0 0];

internalField   nonuniform List<vector> 
7600
(
(0.0107986 -0.00965042 0)
(0.024249 -0.00958548 0)
(0.0414992 -0.00932886 0)
(0.058464 -0.00871081 0)
(0.0751492 -0.00777022 0)
(0.0912546 -0.00669512 0)
(0.106316 -0.0055652 0)
(0.119841 -0.0044226 0)
(0.131317 -0.0033003 0)
(0.14025 -0.00223159 0)
(0.146209 -0.0012489 0)
(0.148958 -0.000365366 0)
(0.148367 0.00041125 0)
(0.144408 0.0010352 0)
(0.137231 0.00149902 0)
(0.127129 0.00186501 0)
(0.114249 0.00223532 0)
(0.0979331 0.00276142 0)
(0.0767113 0.00345765 0)
(0.0486174 0.00380486 0)
(0.0216297 0.00209047 0)
(0.0180106 -0.00158208 0)
(0.0425115 -0.00486207 0)
(0.0826669 -0.00700486 0)
(0.128152 -0.00787266 0)
(0.170531 -0.00735371 0)
(0.203608 -0.00571537 0)
(0.224119 -0.00340227 0)
(0.231855 -0.0007945 0)
(0.228504 0.00170659 0)
(0.216976 0.00381541 0)
(0.199796 0.00555719 0)
(0.17889 0.00703756 0)
(0.155784 0.00828979 0)
(0.131737 0.00928332 0)
(0.107895 0.00989496 0)
(0.0854276 0.0098624 0)
(0.0655608 0.0089603 0)
(0.0483345 0.00796183 0)
(0.0347306 0.0246566 0)
(0.013077 -0.0270885 0)
(0.0282756 -0.0233439 0)
(0.045156 -0.0208754 0)
(0.0609932 -0.0187873 0)
(0.0763553 -0.0166538 0)
(0.0911559 -0.0143972 0)
(0.105061 -0.0120185 0)
(0.117632 -0.00955821 0)
(0.128369 -0.00708363 0)
(0.136762 -0.00468129 0)
(0.142325 -0.0024531 0)
(0.144712 -0.000502692 0)
(0.143588 0.00115157 0)
(0.138785 0.00250679 0)
(0.130301 0.00353949 0)
(0.118256 0.00430638 0)
(0.102579 0.00499662 0)
(0.0825177 0.00585338 0)
(0.0570721 0.00689134 0)
(0.0264391 0.00706766 0)
(0.00192097 0.00358174 0)
(0.00189447 -0.00337367 0)
(0.0272552 -0.00994384 0)
(0.0672664 -0.0141998 0)
(0.112364 -0.0158197 0)
(0.154536 -0.0147771 0)
(0.187854 -0.0114 0)
(0.2091 -0.00647353 0)
(0.217979 -0.000961587 0)
(0.21612 0.00429091 0)
(0.206303 0.0089781 0)
(0.19098 0.0131124 0)
(0.172021 0.016695 0)
(0.150932 0.0197085 0)
(0.128916 0.0220602 0)
(0.106944 0.0235575 0)
(0.0856929 0.0239862 0)
(0.0651422 0.0237412 0)
(0.0432538 0.0263949 0)
(0.0251206 0.0567967 0)
(0.0120092 -0.0497796 0)
(0.0269936 -0.0418232 0)
(0.0437068 -0.0364829 0)
(0.0591943 -0.0322164 0)
(0.0739686 -0.0282544 0)
(0.0879645 -0.0243117 0)
(0.100965 -0.0202794 0)
(0.11263 -0.0161564 0)
(0.122533 -0.0120128 0)
(0.130199 -0.00796583 0)
(0.135147 -0.00416577 0)
(0.136986 -0.000749544 0)
(0.135262 0.00223357 0)
(0.129747 0.00470428 0)
(0.120335 0.00661379 0)
(0.106956 0.00807834 0)
(0.0892966 0.00940662 0)
(0.0665495 0.0108997 0)
(0.0382503 0.0123366 0)
(0.00655815 0.0117191 0)
(-0.0151847 0.00536289 0)
(-0.0131877 -0.00581169 0)
(0.0116005 -0.0165854 0)
(0.0505513 -0.0238037 0)
(0.0946689 -0.0268474 0)
(0.136308 -0.0254641 0)
(0.169704 -0.0200806 0)
(0.191579 -0.0119219 0)
(0.201444 -0.00256146 0)
(0.200801 0.00651516 0)
(0.192365 0.0146311 0)
(0.178642 0.021749 0)
(0.161498 0.0278903 0)
(0.142391 0.0330533 0)
(0.122403 0.0371586 0)
(0.102273 0.0400918 0)
(0.0823106 0.0419756 0)
(0.0620626 0.0440995 0)
(0.0401117 0.051619 0)
(0.0207326 0.0922359 0)
(0.0104693 -0.0717834 0)
(0.0242616 -0.0609061 0)
(0.0400938 -0.0530399 0)
(0.0550137 -0.0465115 0)
(0.0692655 -0.040505 0)
(0.0826632 -0.0346494 0)
(0.0949823 -0.028773 0)
(0.105916 -0.0228392 0)
(0.11508 -0.0169101 0)
(0.122041 -0.011119 0)
(0.126338 -0.0056532 0)
(0.127554 -0.000672724 0)
(0.12515 0.00373754 0)
(0.118864 0.00743967 0)
(0.108461 0.0103887 0)
(0.0936523 0.0127617 0)
(0.0738963 0.0149579 0)
(0.0484028 0.0172446 0)
(0.0173881 0.0189857 0)
(-0.0148804 0.0169693 0)
(-0.03406 0.00710222 0)
(-0.0309902 -0.00881687 0)
(-0.00761878 -0.0241085 0)
(0.0300293 -0.0346663 0)
(0.0732891 -0.0392128 0)
(0.114816 -0.0374353 0)
(0.148896 -0.029847 0)
(0.172019 -0.0181481 0)
(0.183331 -0.00462348 0)
(0.184147 0.00850278 0)
(0.177157 0.0201524 0)
(0.165028 0.0302704 0)
(0.149651 0.038924 0)
(0.132446 0.0461758 0)
(0.114384 0.0520483 0)
(0.0960209 0.0566355 0)
(0.0774397 0.0605021 0)
(0.0581295 0.0656623 0)
(0.0371321 0.0782214 0)
(0.0182248 0.126555 0)
(0.0089485 -0.0931864 0)
(0.0213435 -0.0802279 0)
(0.035753 -0.0701792 0)
(0.0496366 -0.0615002 0)
(0.0630332 -0.0534075 0)
(0.0756554 -0.0455212 0)
(0.0872246 -0.0376568 0)
(0.0974094 -0.0297672 0)
(0.105828 -0.0219142 0)
(0.112052 -0.0142453 0)
(0.11563 -0.00697749 0)
(0.116109 -0.000274547 0)
(0.112885 0.00573582 0)
(0.105646 0.0108473 0)
(0.0939966 0.0150464 0)
(0.077412 0.0185731 0)
(0.0551624 0.0218694 0)
(0.0265885 0.0250451 0)
(-0.00719152 0.0267034 0)
(-0.0390458 0.0225852 0)
(-0.0566092 0.00869206 0)
(-0.0532728 -0.0120513 0)
(-0.0315393 -0.0320196 0)
(0.00396449 -0.0463412 0)
(0.0464407 -0.0528115 0)
(0.0882901 -0.0509081 0)
(0.123826 -0.0412166 0)
(0.149126 -0.0258272 0)
(0.162731 -0.00778185 0)
(0.165623 0.0098099 0)
(0.160429 0.0252959 0)
(0.150111 0.0385818 0)
(0.136628 0.0498281 0)
(0.121386 0.0592242 0)
(0.105267 0.0669751 0)
(0.0886912 0.073466 0)
(0.0716235 0.0797137 0)
(0.0536305 0.0882817 0)
(0.0340318 0.105809 0)
(0.0162214 0.160956 0)
(0.00764321 -0.113613 0)
(0.0184824 -0.0991836 0)
(0.0311923 -0.0873145 0)
(0.0436711 -0.0766952 0)
(0.0558406 -0.0665916 0)
(0.067369 -0.0566544 0)
(0.0779373 -0.0467231 0)
(0.0871819 -0.0367676 0)
(0.0946997 -0.0268661 0)
(0.100043 -0.0171874 0)
(0.102749 -0.00797134 0)
(0.102273 0.000620348 0)
(0.0980133 0.00841164 0)
(0.089516 0.0151424 0)
(0.0762102 0.0208498 0)
(0.0573411 0.0258209 0)
(0.0320572 0.0304735 0)
(-4.53789e-05 0.0345055 0)
(-0.0356928 0.0354622 0)
(-0.067015 0.0285653 0)
(-0.0838685 0.0103104 0)
(-0.0810414 -0.0153693 0)
(-0.0610526 -0.0401395 0)
(-0.0283658 -0.0586046 0)
(0.0127944 -0.0677873 0)
(0.0552841 -0.0662508 0)
(0.0930475 -0.0547481 0)
(0.121673 -0.0356156 0)
(0.138774 -0.012645 0)
(0.144725 0.00996091 0)
(0.141903 0.0296854 0)
(0.133772 0.0463471 0)
(0.122433 0.0602841 0)
(0.109315 0.0718914 0)
(0.0952442 0.0816355 0)
(0.0805555 0.0902465 0)
(0.0651789 0.0991603 0)
(0.0487996 0.111348 0)
(0.0309028 0.133796 0)
(0.014538 0.195524 0)
(0.00646276 -0.132899 0)
(0.0156843 -0.117303 0)
(0.0265364 -0.103906 0)
(0.0373429 -0.091573 0)
(0.0479626 -0.0796003 0)
(0.0580631 -0.0676752 0)
(0.0673099 -0.0556738 0)
(0.0753197 -0.043598 0)
(0.0816673 -0.0315548 0)
(0.0858743 -0.0197416 0)
(0.087446 -0.00841269 0)
(0.0857026 0.00226414 0)
(0.0800304 0.0120576 0)
(0.0698171 0.0206781 0)
(0.0542853 0.0282186 0)
(0.0324857 0.0349811 0)
(0.0035014 0.0412102 0)
(-0.0317721 0.0457441 0)
(-0.0684074 0.0452875 0)
(-0.0996264 0.0350708 0)
(-0.116631 0.01218 0)
(-0.115061 -0.0186233 0)
(-0.097205 -0.0483492 0)
(-0.066948 -0.071346 0)
(-0.0284811 -0.084024 0)
(0.0144918 -0.0839914 0)
(0.0550536 -0.0712565 0)
(0.0882324 -0.0485653 0)
(0.110431 -0.0202907 0)
(0.12091 0.00810539 0)
(0.121345 0.0327012 0)
(0.115946 0.0530706 0)
(0.10712 0.0698711 0)
(0.0963661 0.0838063 0)
(0.0845076 0.0956856 0)
(0.0718501 0.106616 0)
(0.0583459 0.118405 0)
(0.0437939 0.134333 0)
(0.0277799 0.161675 0)
(0.0130436 0.230035 0)
(0.00532693 -0.150685 0)
(0.0128869 -0.134067 0)
(0.0217673 -0.119365 0)
(0.0306916 -0.105528 0)
(0.0394827 -0.0918512 0)
(0.0478334 -0.078049 0)
(0.0554133 -0.0640319 0)
(0.0618349 -0.0498358 0)
(0.066656 -0.0355992 0)
(0.0693665 -0.0215479 0)
(0.0694166 -0.00792759 0)
(0.0659343 0.00507068 0)
(0.058318 0.0171362 0)
(0.0457661 0.0279775 0)
(0.0272731 0.0377359 0)
(0.00175643 0.0466816 0)
(-0.0309571 0.0543709 0)
(-0.0682991 0.0587659 0)
(-0.10592 0.0563001 0)
(-0.137532 0.042355 0)
(-0.155544 0.0145757 0)
(-0.155956 -0.0215757 0)
(-0.140687 -0.0565699 0)
(-0.112897 -0.0844389 0)
(-0.0763755 -0.101298 0)
(-0.0348834 -0.104216 0)
(0.00834561 -0.0917768 0)
(0.0470197 -0.0660684 0)
(0.076225 -0.0323632 0)
(0.093311 0.00289016 0)
(0.0985032 0.0333764 0)
(0.0966325 0.058012 0)
(0.0908243 0.0779785 0)
(0.0827468 0.0944417 0)
(0.0733017 0.108647 0)
(0.0628292 0.122101 0)
(0.0513502 0.136941 0)
(0.0387575 0.156711 0)
(0.0247115 0.188993 0)
(0.0116706 0.264223 0)
(0.00417318 -0.166447 0)
(0.0100174 -0.148853 0)
(0.0168123 -0.133012 0)
(0.023663 -0.117854 0)
(0.0303667 -0.10264 0)
(0.0366517 -0.0870966 0)
(0.0422023 -0.0711562 0)
(0.0466364 -0.0548803 0)
(0.0494977 -0.0384305 0)
(0.0502482 -0.0220472 0)
(0.0482355 -0.00591658 0)
(0.042369 0.0096804 0)
(0.0321018 0.0243013 0)
(0.0164251 0.0377832 0)
(-0.00593897 0.0502695 0)
(-0.035209 0.0613477 0)
(-0.070703 0.0699859 0)
(-0.109921 0.073714 0)
(-0.148629 0.0687527 0)
(-0.181206 0.0507373 0)
(-0.201053 0.0178459 0)
(-0.204119 -0.0239157 0)
(-0.191879 -0.0646007 0)
(-0.166686 -0.0979713 0)
(-0.131889 -0.11967 0)
(-0.0909833 -0.126471 0)
(-0.0473066 -0.116573 0)
(-0.00396273 -0.090182 0)
(0.0338698 -0.0510367 0)
(0.0601363 -0.00810484 0)
(0.0729489 0.0298261 0)
(0.075846 0.0599005 0)
(0.0737535 0.0836741 0)
(0.0687389 0.103061 0)
(0.0619244 0.119896 0)
(0.0537727 0.136132 0)
(0.0444176 0.154222 0)
(0.0338338 0.177975 0)
(0.0217578 0.21534 0)
(0.0103919 0.297794 0)
(0.00293608 -0.179424 0)
(0.00699986 -0.160847 0)
(0.0115709 -0.143996 0)
(0.0161483 -0.127672 0)
(0.0205025 -0.111079 0)
(0.0243971 -0.0939367 0)
(0.0275316 -0.076184 0)
(0.0295285 -0.0578929 0)
(0.0299098 -0.0392343 0)
(0.0281136 -0.0204335 0)
(0.0232291 -0.00155953 0)
(0.0141965 0.0169902 0)
(0.000424677 0.0346509 0)
(-0.0191973 0.0511958 0)
(-0.0451741 0.066218 0)
(-0.0776865 0.0791061 0)
(-0.115711 0.0882859 0)
(-0.156677 0.0908547 0)
(-0.196681 0.0829696 0)
(-0.230819 0.0606221 0)
(-0.253241 0.0224093 0)
(-0.259481 -0.0252818 0)
(-0.25056 -0.072198 0)
(-0.228086 -0.111888 0)
(-0.195031 -0.139446 0)
(-0.154513 -0.151221 0)
(-0.109696 -0.145023 0)
(-0.0635476 -0.120705 0)
(-0.0196019 -0.080522 0)
(0.0189614 -0.0285399 0)
(0.0436345 0.0195418 0)
(0.0536671 0.0570057 0)
(0.056203 0.0857635 0)
(0.0546982 0.108783 0)
(0.0507243 0.128738 0)
(0.0449831 0.148121 0)
(0.0377756 0.169731 0)
(0.0291646 0.197698 0)
(0.0189824 0.240393 0)
(0.00919909 0.330479 0)
(0.00151739 -0.188563 0)
(0.00376041 -0.168991 0)
(0.00592762 -0.151235 0)
(0.0080075 -0.133885 0)
(0.00972796 -0.116065 0)
(0.0108799 -0.0974681 0)
(0.0111662 -0.0780183 0)
(0.0101962 -0.0577678 0)
(0.00744569 -0.0368485 0)
(0.00230853 -0.0153385 0)
(-0.00650199 0.00678063 0)
(-0.0192678 0.0284506 0)
(-0.0369429 0.0491304 0)
(-0.0602732 0.068501 0)
(-0.0897466 0.0859515 0)
(-0.125253 0.100335 0)
(-0.165568 0.109575 0)
(-0.208216 0.110514 0)
(-0.249768 0.0993597 0)
(-0.285977 0.0724826 0)
(-0.311464 0.0287122 0)
(-0.321076 -0.0253328 0)
(-0.315443 -0.0791407 0)
(-0.295768 -0.126077 0)
(-0.264751 -0.160658 0)
(-0.225055 -0.178856 0)
(-0.179336 -0.17807 0)
(-0.130303 -0.157479 0)
(-0.0811261 -0.118642 0)
(-0.0349413 -0.0653332 0)
(0.004793 -0.00449649 0)
(0.0281846 0.0458466 0)
(0.0376741 0.0822005 0)
(0.0405923 0.110297 0)
(0.0398322 0.134266 0)
(0.0366218 0.157392 0)
(0.0315492 0.182952 0)
(0.0248183 0.215499 0)
(0.0164028 0.263883 0)
(0.00807874 0.362007 0)
(-0.000177898 -0.192431 0)
(0.000204594 -0.171902 0)
(-0.000264043 -0.153323 0)
(-0.000953689 -0.135051 0)
(-0.00218988 -0.11611 0)
(-0.0041678 -0.0961428 0)
(-0.00719353 -0.0750301 0)
(-0.0116822 -0.0527703 0)
(-0.0181816 -0.0294249 0)
(-0.0274669 -0.00500615 0)
(-0.0404779 0.0201116 0)
(-0.057266 0.0447153 0)
(-0.0788918 0.0683658 0)
(-0.105924 0.0904544 0)
(-0.138692 0.109988 0)
(-0.176879 0.125388 0)
(-0.219232 0.134191 0)
(-0.263491 0.133078 0)
(-0.306739 0.118379 0)
(-0.345221 0.086783 0)
(-0.373741 0.0371117 0)
(-0.386397 -0.0238655 0)
(-0.383665 -0.0852653 0)
(-0.366962 -0.140287 0)
(-0.338704 -0.182988 0)
(-0.300955 -0.209152 0)
(-0.255636 -0.215859 0)
(-0.20484 -0.201672 0)
(-0.151195 -0.167074 0)
(-0.0978469 -0.114715 0)
(-0.0484321 -0.0502887 0)
(-0.00686738 0.0172708 0)
(0.0158014 0.0689564 0)
(0.0255103 0.105491 0)
(0.0289099 0.135237 0)
(0.0285566 0.163223 0)
(0.0256736 0.193475 0)
(0.020753 0.231168 0)
(0.0139868 0.285684 0)
(0.00700724 0.392159 0)
(-0.00209658 -0.188925 0)
(-0.00371605 -0.167575 0)
(-0.00702949 -0.148331 0)
(-0.0107709 -0.129288 0)
(-0.0152773 -0.109371 0)
(-0.0207454 -0.0881603 0)
(-0.0274965 -0.0654725 0)
(-0.035964 -0.0412248 0)
(-0.0467032 -0.0153761 0)
(-0.0606872 0.0120398 0)
(-0.0776851 0.0397265 0)
(-0.0985641 0.0669867 0)
(-0.123988 0.0932577 0)
(-0.154457 0.117627 0)
(-0.190133 0.13874 0)
(-0.230592 0.154609 0)
(-0.27463 0.162468 0)
(-0.320249 0.158915 0)
(-0.364958 0.140396 0)
(-0.405269 0.10379 0)
(-0.435975 0.04769 0)
(-0.450817 -0.0208837 0)
(-0.450489 -0.0903706 0)
(-0.437247 -0.153945 0)
(-0.412971 -0.205558 0)
(-0.378977 -0.241085 0)
(-0.336284 -0.25746 0)
(-0.286163 -0.252682 0)
(-0.230505 -0.226188 0)
(-0.17195 -0.179205 0)
(-0.114021 -0.115314 0)
(-0.0611179 -0.040894 0)
(-0.0174988 0.0339757 0)
(0.00542778 0.0884755 0)
(0.015915 0.128706 0)
(0.0197779 0.163879 0)
(0.019538 0.200208 0)
(0.0165724 0.243986 0)
(0.011482 0.305211 0)
(0.00590097 0.420258 0)
(-0.00414848 -0.176032 0)
(-0.00792849 -0.153932 0)
(-0.0141908 -0.134167 0)
(-0.0211737 -0.114502 0)
(-0.0291568 -0.0937379 0)
(-0.0383497 -0.0713752 0)
(-0.0490896 -0.0471674 0)
(-0.0618139 -0.020926 0)
(-0.0772179 0.00746751 0)
(-0.0951523 0.0368577 0)
(-0.11609 0.06655 0)
(-0.140695 0.0960072 0)
(-0.169515 0.124385 0)
(-0.202913 0.150459 0)
(-0.240908 0.172519 0)
(-0.283006 0.188232 0)
(-0.328072 0.1946 0)
(-0.374315 0.188164 0)
(-0.419511 0.165428 0)
(-0.460276 0.123326 0)
(-0.491502 0.0601651 0)
(-0.507464 -0.0164713 0)
(-0.509259 -0.0940368 0)
(-0.500282 -0.166017 0)
(-0.481562 -0.226776 0)
(-0.453626 -0.272605 0)
(-0.416534 -0.300539 0)
(-0.370632 -0.308155 0)
(-0.316935 -0.29393 0)
(-0.257269 -0.257556 0)
(-0.194458 -0.20033 0)
(-0.132431 -0.125808 0)
(-0.0760435 -0.0404096 0)
(-0.0296989 0.0450063 0)
(-0.005339 0.106208 0)
(0.00669975 0.155777 0)
(0.0112697 0.201619 0)
(0.0114059 0.253214 0)
(0.00852157 0.321889 0)
(0.00467751 0.445511 0)
(-0.00629076 -0.151406 0)
(-0.0122404 -0.128678 0)
(-0.0214365 -0.10862 0)
(-0.0317195 -0.0885485 0)
(-0.0432343 -0.0671484 0)
(-0.0562312 -0.0438253 0)
(-0.0710123 -0.018214 0)
(-0.0879645 0.00997237 0)
(-0.106894 0.0395408 0)
(-0.128178 0.0700744 0)
(-0.152356 0.101221 0)
(-0.179951 0.13226 0)
(-0.211374 0.162066 0)
(-0.246822 0.189101 0)
(-0.286161 0.211327 0)
(-0.328815 0.226128 0)
(-0.373664 0.230316 0)
(-0.419021 0.220366 0)
(-0.462808 0.192789 0)
(-0.501816 0.144568 0)
(-0.531509 0.073898 0)
(-0.547655 -0.0107407 0)
(-0.55147 -0.0956466 0)
(-0.547551 -0.175004 0)
(-0.535923 -0.244252 0)
(-0.516427 -0.300455 0)
(-0.488228 -0.341049 0)
(-0.450749 -0.363404 0)
(-0.404083 -0.365287 0)
(-0.349054 -0.345133 0)
(-0.287403 -0.302098 0)
(-0.221984 -0.236848 0)
(-0.156699 -0.152214 0)
(-0.0965455 -0.0540042 0)
(-0.0462774 0.046868 0)
(-0.0182958 0.122804 0)
(-0.00394726 0.186613 0)
(0.00203397 0.251925 0)
(0.00330558 0.330667 0)
(0.0024979 0.463642 0)
(-0.00829184 -0.11259 0)
(-0.0164033 -0.0893134 0)
(-0.028281 -0.0693003 0)
(-0.0417795 -0.049178 0)
(-0.0567023 -0.0274006 0)
(-0.0731132 -0.0031288 0)
(-0.091089 0.0232542 0)
(-0.110569 0.0511017 0)
(-0.13188 0.0806324 0)
(-0.155451 0.111676 0)
(-0.181753 0.143653 0)
(-0.211168 0.175561 0)
(-0.243929 0.205976 0)
(-0.280044 0.233057 0)
(-0.319204 0.254486 0)
(-0.360707 0.267409 0)
(-0.403379 0.268493 0)
(-0.445581 0.254173 0)
(-0.485401 0.221022 0)
(-0.520101 0.166233 0)
(-0.546238 0.0881854 0)
(-0.561641 -0.0036322 0)
(-0.567188 -0.0942605 0)
(-0.568631 -0.179109 0)
(-0.565131 -0.255272 0)
(-0.55596 -0.320699 0)
(-0.539528 -0.37356 0)
(-0.514434 -0.411331 0)
(-0.479973 -0.43151 0)
(-0.436027 -0.43182 0)
(-0.383141 -0.409775 0)
(-0.322856 -0.363582 0)
(-0.257567 -0.292646 0)
(-0.190649 -0.197987 0)
(-0.126869 -0.0835701 0)
(-0.070914 0.0409053 0)
(-0.0354054 0.14334 0)
(-0.0159638 0.230749 0)
(-0.0062689 0.324459 0)
(-0.00180992 0.467359 0)
(-0.0106335 -0.0604506 0)
(-0.0211646 -0.0359213 0)
(-0.0352897 -0.0152568 0)
(-0.0510806 0.00499858 0)
(-0.067938 0.0262312 0)
(-0.0857976 0.0487784 0)
(-0.104808 0.0733276 0)
(-0.125246 0.100211 0)
(-0.147489 0.1294 0)
(-0.171882 0.160491 0)
(-0.198741 0.192663 0)
(-0.228289 0.224639 0)
(-0.260583 0.254709 0)
(-0.295433 0.280754 0)
(-0.332342 0.300218 0)
(-0.370453 0.310077 0)
(-0.408522 0.30693 0)
(-0.444966 0.287265 0)
(-0.47813 0.247883 0)
(-0.505988 0.186418 0)
(-0.526446 0.101723 0)
(-0.539458 0.00433841 0)
(-0.546661 -0.0898685 0)
(-0.553082 -0.177259 0)
(-0.557798 -0.257065 0)
(-0.559352 -0.328678 0)
(-0.555781 -0.391704 0)
(-0.545295 -0.443863 0)
(-0.52653 -0.48228 0)
(-0.498595 -0.504896 0)
(-0.461024 -0.508392 0)
(-0.414165 -0.489716 0)
(-0.359009 -0.446452 0)
(-0.297018 -0.376375 0)
(-0.230537 -0.278031 0)
(-0.163339 -0.151556 0)
(-0.100026 -0.000598793 0)
(-0.0511947 0.145122 0)
(-0.0226024 0.268506 0)
(-0.00792809 0.424457 0)
(-0.0115803 0.0177948 0)
(-0.0227142 0.0387858 0)
(-0.0371531 0.0538496 0)
(-0.0531696 0.0693042 0)
(-0.0699796 0.086724 0)
(-0.0877089 0.106708 0)
(-0.106602 0.129533 0)
(-0.126861 0.155244 0)
(-0.148697 0.183632 0)
(-0.172324 0.214129 0)
(-0.19793 0.245707 0)
(-0.225614 0.276832 0)
(-0.255301 0.305507 0)
(-0.286659 0.329346 0)
(-0.319044 0.345596 0)
(-0.351485 0.35114 0)
(-0.382705 0.342622 0)
(-0.411227 0.316744 0)
(-0.435685 0.27073 0)
(-0.454808 0.202909 0)
(-0.467766 0.113007 0)
(-0.476513 0.0127891 0)
(-0.484175 -0.0816129 0)
(-0.493889 -0.168059 0)
(-0.504978 -0.248186 0)
(-0.515621 -0.32291 0)
(-0.523779 -0.392161 0)
(-0.527441 -0.45452 0)
(-0.524534 -0.507569 0)
(-0.513778 -0.549923 0)
(-0.494409 -0.578249 0)
(-0.465982 -0.58835 0)
(-0.428629 -0.577669 0)
(-0.38264 -0.542859 0)
(-0.328616 -0.480202 0)
(-0.267542 -0.385616 0)
(-0.200915 -0.253937 0)
(-0.131809 -0.0782984 0)
(-0.0682706 0.138149 0)
(-0.0251408 0.355576 0)
(-0.00971336 0.0920726 0)
(-0.0191116 0.11013 0)
(-0.0319176 0.122831 0)
(-0.0462756 0.135987 0)
(-0.0616411 0.151116 0)
(-0.0779844 0.168867 0)
(-0.0953673 0.18959 0)
(-0.113847 0.213383 0)
(-0.133496 0.240034 0)
(-0.154401 0.268916 0)
(-0.17664 0.298863 0)
(-0.200232 0.328112 0)
(-0.225052 0.35437 0)
(-0.25073 0.374962 0)
(-0.276579 0.386941 0)
(-0.301603 0.387157 0)
(-0.32458 0.372405 0)
(-0.344178 0.339724 0)
(-0.359268 0.286927 0)
(-0.369156 0.213224 0)
(-0.373834 0.119649 0)
(-0.376691 0.019396 0)
(-0.382597 -0.0719562 0)
(-0.392653 -0.153938 0)
(-0.406312 -0.230026 0)
(-0.421898 -0.302801 0)
(-0.437411 -0.373463 0)
(-0.450539 -0.441769 0)
(-0.458927 -0.506246 0)
(-0.46081 -0.56441 0)
(-0.455165 -0.613474 0)
(-0.441191 -0.649855 0)
(-0.418636 -0.671103 0)
(-0.387621 -0.674828 0)
(-0.348207 -0.657958 0)
(-0.300577 -0.61768 0)
(-0.244737 -0.55017 0)
(-0.17979 -0.448848 0)
(-0.108799 -0.298603 0)
(-0.0465423 -0.0361007 0)
(-0.00721244 0.158304 0)
(-0.0141079 0.176828 0)
(-0.024252 0.188293 0)
(-0.0355582 0.199702 0)
(-0.0477491 0.212774 0)
(-0.0607451 0.228266 0)
(-0.0745271 0.246604 0)
(-0.0890586 0.267957 0)
(-0.104303 0.292167 0)
(-0.120231 0.318633 0)
(-0.136822 0.34616 0)
(-0.154051 0.372857 0)
(-0.17182 0.396175 0)
(-0.189857 0.413135 0)
(-0.207593 0.42051 0)
(-0.224177 0.415131 0)
(-0.238559 0.39403 0)
(-0.249646 0.354615 0)
(-0.256544 0.29535 0)
(-0.258954 0.216398 0)
(-0.257079 0.120464 0)
(-0.254564 0.022354 0)
(-0.25758 -0.0635342 0)
(-0.265454 -0.138928 0)
(-0.277403 -0.208577 0)
(-0.292488 -0.276406 0)
(-0.30924 -0.344965 0)
(-0.325572 -0.415425 0)
(-0.339038 -0.487392 0)
(-0.347344 -0.559001 0)
(-0.34878 -0.627238 0)
(-0.34235 -0.688581 0)
(-0.3278 -0.739706 0)
(-0.305438 -0.777996 0)
(-0.275758 -0.801125 0)
(-0.23931 -0.806773 0)
(-0.196685 -0.792002 0)
(-0.14811 -0.752061 0)
(-0.0925578 -0.677654 0)
(-0.0442226 -0.544663 0)
(-0.00449531 0.205051 0)
(-0.00889475 0.225282 0)
(-0.01564 0.236628 0)
(-0.0231572 0.247248 0)
(-0.031321 0.259051 0)
(-0.0400314 0.272871 0)
(-0.049214 0.289191 0)
(-0.0587666 0.308244 0)
(-0.0685712 0.329958 0)
(-0.0785064 0.353833 0)
(-0.0884694 0.378773 0)
(-0.0983961 0.402925 0)
(-0.108224 0.423629 0)
(-0.117988 0.437618 0)
(-0.127001 0.441426 0)
(-0.135293 0.431753 0)
(-0.141671 0.405703 0)
(-0.145602 0.361079 0)
(-0.146482 0.296879 0)
(-0.144381 0.213985 0)
(-0.139316 0.116795 0)
(-0.133794 0.0214648 0)
(-0.13454 -0.0587502 0)
(-0.139653 -0.127704 0)
(-0.147729 -0.190491 0)
(-0.158927 -0.251437 0)
(-0.173013 -0.31453 0)
(-0.188979 -0.383093 0)
(-0.204775 -0.458713 0)
(-0.217802 -0.540551 0)
(-0.225591 -0.625651 0)
(-0.226507 -0.70954 0)
(-0.220089 -0.787693 0)
(-0.206648 -0.856486 0)
(-0.186859 -0.912963 0)
(-0.161544 -0.954509 0)
(-0.131511 -0.978047 0)
(-0.097593 -0.9784 0)
(-0.05887 -0.943532 0)
(-0.027161 -0.834057 0)
(-0.00200225 0.230083 0)
(-0.00423211 0.252511 0)
(-0.00777651 0.264322 0)
(-0.0117781 0.274723 0)
(-0.0161601 0.285809 0)
(-0.0208075 0.298472 0)
(-0.0256079 0.313231 0)
(-0.0304156 0.330364 0)
(-0.0350569 0.349875 0)
(-0.0393426 0.371383 0)
(-0.0430962 0.393955 0)
(-0.0462059 0.415909 0)
(-0.0486277 0.434682 0)
(-0.0505097 0.446847 0)
(-0.0515988 0.448711 0)
(-0.0519068 0.436835 0)
(-0.0508899 0.408223 0)
(-0.0483675 0.361023 0)
(-0.0441585 0.294575 0)
(-0.0387262 0.209938 0)
(-0.0326215 0.112731 0)
(-0.0276232 0.0196339 0)
(-0.0311331 -0.056892 0)
(-0.0369495 -0.121799 0)
(-0.043932 -0.180202 0)
(-0.0524509 -0.235365 0)
(-0.0631987 -0.29122 0)
(-0.0766982 -0.352797 0)
(-0.0924962 -0.424814 0)
(-0.108756 -0.509197 0)
(-0.122557 -0.604295 0)
(-0.131161 -0.704504 0)
(-0.133473 -0.803066 0)
(-0.129602 -0.894911 0)
(-0.120135 -0.976075 0)
(-0.105908 -1.0435 0)
(-0.0876825 -1.0941 0)
(-0.0663162 -1.12323 0)
(-0.0410375 -1.11963 0)
(-0.0191128 -1.03914 0)
(-7.20233e-05 0.237123 0)
(-0.00028868 0.261999 0)
(-0.00103661 0.274669 0)
(-0.0019925 0.285266 0)
(-0.00309707 0.296067 0)
(-0.004225 0.308013 0)
(-0.00523578 0.321646 0)
(-0.00595088 0.337275 0)
(-0.00615315 0.354961 0)
(-0.00559523 0.374427 0)
(-0.00402513 0.39491 0)
(-0.00122154 0.414966 0)
(0.00284965 0.432297 0)
(0.00836251 0.443352 0)
(0.0147266 0.444348 0)
(0.0223328 0.431649 0)
(0.0307139 0.402216 0)
(0.0398839 0.354341 0)
(0.0493525 0.287669 0)
(0.0583546 0.203448 0)
(0.0646969 0.110354 0)
(0.0655934 0.0249449 0)
(0.0571962 -0.0490116 0)
(0.047722 -0.112706 0)
(0.0374688 -0.169593 0)
(0.0268035 -0.222357 0)
(0.0155248 -0.273936 0)
(0.00291148 -0.329043 0)
(-0.0122709 -0.394123 0)
(-0.0298912 -0.474133 0)
(-0.0477807 -0.571709 0)
(-0.062411 -0.68148 0)
(-0.0717051 -0.793831 0)
(-0.0753794 -0.902017 0)
(-0.0738083 -1.00065 0)
(-0.0677914 -1.08616 0)
(-0.0580174 -1.15542 0)
(-0.0452681 -1.20437 0)
(-0.0290815 -1.22335 0)
(-0.0139165 -1.16834 0)
(0.0014159 0.231745 0)
(0.00295068 0.25878 0)
(0.00455739 0.272592 0)
(0.00614134 0.283718 0)
(0.00776452 0.294585 0)
(0.00956001 0.30618 0)
(0.0116923 0.31906 0)
(0.0143693 0.33355 0)
(0.0178485 0.349744 0)
(0.0224338 0.367438 0)
(0.0284545 0.385987 0)
(0.0362389 0.404128 0)
(0.0459766 0.419763 0)
(0.0578566 0.429748 0)
(0.0713331 0.430344 0)
(0.0863344 0.417763 0)
(0.102061 0.388985 0)
(0.117934 0.342293 0)
(0.132769 0.277543 0)
(0.145196 0.196324 0)
(0.151624 0.108952 0)
(0.1497 0.0299817 0)
(0.138658 -0.0394153 0)
(0.124984 -0.10029 0)
(0.109696 -0.155076 0)
(0.0938858 -0.206095 0)
(0.0780354 -0.255696 0)
(0.0620903 -0.30697 0)
(0.0451318 -0.365035 0)
(0.0263365 -0.437693 0)
(0.0062985 -0.532396 0)
(-0.0128661 -0.647591 0)
(-0.0279462 -0.769418 0)
(-0.0376923 -0.890069 0)
(-0.0421817 -1.00219 0)
(-0.0422062 -1.10171 0)
(-0.0384104 -1.18538 0)
(-0.0315096 -1.24964 0)
(-0.0213019 -1.28652 0)
(-0.0106669 -1.25473 0)
(0.00258372 0.218187 0)
(0.00555644 0.247192 0)
(0.00907197 0.262288 0)
(0.0126989 0.274154 0)
(0.0165124 0.285323 0)
(0.020655 0.296813 0)
(0.0253141 0.309185 0)
(0.0307275 0.322766 0)
(0.0371944 0.337668 0)
(0.0450763 0.353737 0)
(0.0547801 0.370431 0)
(0.066731 0.386662 0)
(0.0812593 0.400582 0)
(0.0985722 0.409435 0)
(0.118352 0.409711 0)
(0.140124 0.397715 0)
(0.162824 0.370457 0)
(0.185237 0.326201 0)
(0.205489 0.264903 0)
(0.221429 0.188494 0)
(0.228674 0.10787 0)
(0.225746 0.0358144 0)
(0.213167 -0.0278393 0)
(0.196051 -0.0845083 0)
(0.176062 -0.136033 0)
(0.154763 -0.184452 0)
(0.133097 -0.231837 0)
(0.111576 -0.280759 0)
(0.0901464 -0.335506 0)
(0.0683534 -0.403501 0)
(0.046101 -0.493347 0)
(0.0242995 -0.606449 0)
(0.00529245 -0.734263 0)
(-0.0092355 -0.865385 0)
(-0.0187655 -0.988491 0)
(-0.0236278 -1.09959 0)
(-0.0244563 -1.19521 0)
(-0.0219148 -1.27223 0)
(-0.0159251 -1.32419 0)
(-0.00851673 -1.31394 0)
(0.00346908 0.199693 0)
(0.00755402 0.230475 0)
(0.0125544 0.246909 0)
(0.0177617 0.25964 0)
(0.0232688 0.271261 0)
(0.0292301 0.282806 0)
(0.0358568 0.294831 0)
(0.0434187 0.307655 0)
(0.0522582 0.321398 0)
(0.0627938 0.33594 0)
(0.0755068 0.350824 0)
(0.0909103 0.365116 0)
(0.109452 0.377225 0)
(0.131413 0.384762 0)
(0.156616 0.384599 0)
(0.184422 0.373313 0)
(0.213514 0.34802 0)
(0.242116 0.307009 0)
(0.267708 0.250264 0)
(0.287337 0.179905 0)
(0.296145 0.106663 0)
(0.293182 0.0418182 0)
(0.279785 -0.0155161 0)
(0.260227 -0.067049 0)
(0.236565 -0.114255 0)
(0.210604 -0.159099 0)
(0.183667 -0.20351 0)
(0.156672 -0.249724 0)
(0.130059 -0.301523 0)
(0.103825 -0.366132 0)
(0.0780945 -0.453109 0)
(0.0537438 -0.565797 0)
(0.0321846 -0.696197 0)
(0.0143823 -0.83228 0)
(0.000864545 -0.964444 0)
(-0.00817703 -1.08568 0)
(-0.0131089 -1.19167 0)
(-0.0141877 -1.27988 0)
(-0.0120464 -1.3453 0)
(-0.00672707 -1.35558 0)
(0.00409267 0.178768 0)
(0.00895936 0.211126 0)
(0.0150259 0.228878 0)
(0.0213701 0.242519 0)
(0.0281028 0.254659 0)
(0.0353945 0.26633 0)
(0.0434839 0.278077 0)
(0.0526769 0.290205 0)
(0.063363 0.302835 0)
(0.0760184 0.315876 0)
(0.0911946 0.328947 0)
(0.109483 0.341263 0)
(0.131423 0.351473 0)
(0.15737 0.357551 0)
(0.187241 0.356793 0)
(0.220332 0.346162 0)
(0.255132 0.32299 0)
(0.289411 0.285644 0)
(0.320078 0.234098 0)
(0.343457 0.170469 0)
(0.354334 0.104851 0)
(0.351969 0.0472626 0)
(0.338668 -0.00341525 0)
(0.317473 -0.0492073 0)
(0.291191 -0.0913438 0)
(0.261658 -0.131833 0)
(0.230454 -0.172581 0)
(0.198789 -0.215704 0)
(0.167532 -0.26475 0)
(0.137253 -0.326752 0)
(0.108439 -0.411595 0)
(0.0816095 -0.523786 0)
(0.0574411 -0.656293 0)
(0.0367476 -0.796672 0)
(0.0199479 -0.934355 0)
(0.00717103 -1.06264 0)
(-0.00176728 -1.17772 0)
(-0.00650605 -1.27597 0)
(-0.00820191 -1.35376 0)
(-0.00516703 -1.38409 0)
(0.00445607 0.157346 0)
(0.00976447 0.191073 0)
(0.0164732 0.210043 0)
(0.0235206 0.224554 0)
(0.0310342 0.237191 0)
(0.0392072 0.24897 0)
(0.0483109 0.260416 0)
(0.0586937 0.27182 0)
(0.0707965 0.283303 0)
(0.0851547 0.294807 0)
(0.102385 0.306027 0)
(0.123142 0.316319 0)
(0.148033 0.324573 0)
(0.177463 0.329104 0)
(0.211395 0.327638 0)
(0.249093 0.317569 0)
(0.288902 0.296523 0)
(0.328243 0.262997 0)
(0.363557 0.216937 0)
(0.390572 0.160313 0)
(0.403771 0.102321 0)
(0.40245 0.0517656 0)
(0.390091 0.00788982 0)
(0.36798 -0.031786 0)
(0.340155 -0.0685222 0)
(0.308317 -0.104219 0)
(0.274154 -0.140812 0)
(0.239081 -0.180484 0)
(0.204381 -0.226889 0)
(0.171302 -0.287103 0)
(0.14071 -0.370751 0)
(0.112492 -0.482299 0)
(0.0862781 -0.61539 0)
(0.062507 -0.758079 0)
(0.0418884 -0.899762 0)
(0.0249491 -1.03338 0)
(0.0116404 -1.15478 0)
(0.00261114 -1.26148 0)
(-0.00335256 -1.35072 0)
(-0.00318513 -1.40069 0)
(0.00454569 0.136942 0)
(0.0099433 0.171812 0)
(0.0168579 0.191819 0)
(0.0241779 0.207064 0)
(0.0320477 0.220079 0)
(0.0406906 0.231851 0)
(0.0504176 0.242879 0)
(0.0616256 0.253445 0)
(0.0748108 0.263676 0)
(0.0905673 0.273551 0)
(0.109568 0.282849 0)
(0.132518 0.291074 0)
(0.16006 0.297344 0)
(0.192617 0.300299 0)
(0.230154 0.298081 0)
(0.271895 0.288509 0)
(0.31607 0.269541 0)
(0.359843 0.239832 0)
(0.399293 0.199301 0)
(0.429702 0.149675 0)
(0.445273 0.0991239 0)
(0.445363 0.0553147 0)
(0.433639 0.017886 0)
(0.411988 -0.0156593 0)
(0.383944 -0.0469752 0)
(0.351324 -0.077725 0)
(0.315845 -0.109946 0)
(0.279159 -0.146087 0)
(0.243076 -0.190237 0)
(0.209484 -0.249589 0)
(0.17918 -0.332715 0)
(0.150918 -0.442935 0)
(0.123189 -0.574517 0)
(0.0961208 -0.716827 0)
(0.0707915 -0.859885 0)
(0.0483367 -0.996699 0)
(0.0292197 -1.12305 0)
(0.0147005 -1.23661 0)
(0.00299133 -1.33545 0)
(-0.000271097 -1.40477 0)
(0.00433612 0.118739 0)
(0.00945695 0.154499 0)
(0.0161253 0.175269 0)
(0.0232867 0.19101 0)
(0.0311064 0.204182 0)
(0.0398455 0.215733 0)
(0.0498603 0.226141 0)
(0.0616011 0.235678 0)
(0.0756207 0.244491 0)
(0.0925679 0.252606 0)
(0.113163 0.259896 0)
(0.138139 0.266015 0)
(0.16815 0.270306 0)
(0.203604 0.271715 0)
(0.244429 0.268764 0)
(0.289787 0.259673 0)
(0.337805 0.242726 0)
(0.385461 0.216748 0)
(0.428572 0.181629 0)
(0.46213 0.138792 0)
(0.48014 0.0953388 0)
(0.482059 0.0579694 0)
(0.471579 0.0265115 0)
(0.45152 -0.00135842 0)
(0.424363 -0.0275538 0)
(0.392558 -0.0535591 0)
(0.357826 -0.0816226 0)
(0.322202 -0.114692 0)
(0.288035 -0.157476 0)
(0.257247 -0.216877 0)
(0.229544 -0.299424 0)
(0.202238 -0.406733 0)
(0.173019 -0.533957 0)
(0.141925 -0.67252 0)
(0.110512 -0.813751 0)
(0.0807046 -0.951074 0)
(0.0536363 -1.08032 0)
(0.0314245 -1.1993 0)
(0.0119364 -1.30687 0)
(0.00372874 -1.3945 0)
(0.00379175 0.103665 0)
(0.0082533 0.140016 0)
(0.0142034 0.161177 0)
(0.0207735 0.177069 0)
(0.0281555 0.190077 0)
(0.0366548 0.201103 0)
(0.0466757 0.210609 0)
(0.0587227 0.218869 0)
(0.0734046 0.226055 0)
(0.0914182 0.232255 0)
(0.113518 0.237445 0)
(0.140449 0.241435 0)
(0.17285 0.243779 0)
(0.211088 0.243711 0)
(0.255023 0.240094 0)
(0.303736 0.231507 0)
(0.355252 0.216533 0)
(0.406417 0.194156 0)
(0.452875 0.164228 0)
(0.489469 0.127831 0)
(0.510131 0.0909969 0)
(0.514442 0.0595722 0)
(0.506119 0.033414 0)
(0.488848 0.0106323 0)