/*--------------------------------*- C++ -*----------------------------------*\
| =========                 |                                                 |
| \\      /  F ield         | OpenFOAM: The Open Source CFD Toolbox           |
|  \\    /   O peration     | Version:  2.2.0                                 |
|   \\  /    A nd           | Web:      www.OpenFOAM.org                      |
|    \\/     M anipulation  |                                                 |
\*---------------------------------------------------------------------------*/
FoamFile
{
    version     2.0;
    format      ascii;
    class       volScalarField;
    location    "2000";
    object      epsilon;
}
// * * * * * * * * * * * * * * * * * * * * * * * * * * * * * * * * * * * * * //

dimensions      [0 2 -3 0 0 0 0];

internalField   nonuniform List<scalar> 
7600
(
2.88827e-07
1.0397e-06
2.10755e-06
3.29592e-06
4.56967e-06
5.85175e-06
7.13574e-06
8.39077e-06
9.58614e-06
1.06917e-05
1.16795e-05
1.25196e-05
1.32974e-05
1.39612e-05
1.45621e-05
1.50163e-05
1.5784e-05
1.61841e-05
1.67371e-05
1.71782e-05
2.29001e-05
5.95624e-05
0.000785632
0.0018948
0.00272384
0.003616
0.00435528
0.00500543
0.00556213
0.00600746
0.00624001
0.0062435
0.00601109
0.00554952
0.00488068
0.00404283
0.00309202
0.0021081
0.00118681
0.000236282
9.46419e-07
9.36106e-07
1.32132e-06
1.77963e-06
2.27292e-06
2.78064e-06
3.2938e-06
3.80304e-06
4.29867e-06
4.77113e-06
5.21179e-06
5.61479e-06
6.0094e-06
6.3852e-06
6.7254e-06
7.01402e-06
7.3073e-06
7.53325e-06
7.87677e-06
8.74035e-06
1.4266e-05
5.61064e-05
0.000723917
0.00136256
0.00162528
0.0018674
0.00206292
0.0022428
0.00242498
0.0025968
0.0027209
0.00278711
0.00278707
0.00271463
0.00256641
0.00234205
0.00204437
0.00167987
0.00126428
0.000934679
1.79423e-06
1.25321e-06
1.42419e-06
1.70434e-06
2.0279e-06
2.37296e-06
2.72818e-06
3.08545e-06
3.43792e-06
3.77969e-06
4.10623e-06
4.41638e-06
4.72449e-06
5.02624e-06
5.30844e-06
5.5596e-06
5.80434e-06
6.0528e-06
6.52961e-06
7.96285e-06
1.58168e-05
7.55681e-05
0.000776738
0.00137847
0.00145963
0.00159569
0.00172563
0.00188387
0.0020653
0.00225506
0.00242848
0.00257064
0.00266783
0.0027076
0.00267993
0.0025782
0.00240037
0.00215139
0.00184372
0.00166938
2.67579e-06
1.65533e-06
1.67053e-06
1.8467e-06
2.08271e-06
2.34903e-06
2.6313e-06
2.92036e-06
3.20941e-06
3.49339e-06
3.76918e-06
4.03718e-06
4.3067e-06
4.57576e-06
4.83563e-06
5.08034e-06
5.33573e-06
5.65483e-06
6.34064e-06
8.47272e-06
1.9549e-05
9.95712e-05
0.000836737
0.00144018
0.00143758
0.00154602
0.00167323
0.00185123
0.00206316
0.00229135
0.00251189
0.00270604
0.00285692
0.00294996
0.00297431
0.00292377
0.00279776
0.00260507
0.002371
0.00245166
3.58859e-06
2.08923e-06
1.97273e-06
2.07048e-06
2.24501e-06
2.45842e-06
2.69343e-06
2.9395e-06
3.18926e-06
3.43766e-06
3.68213e-06
3.92376e-06
4.1703e-06
4.42116e-06
4.67255e-06
4.92622e-06
5.2197e-06
5.64537e-06
6.60947e-06
9.61606e-06
2.466e-05
0.000125287
0.000890789
0.0014944
0.00145713
0.00156307
0.00170586
0.00191336
0.00216128
0.00242843
0.00268877
0.00292059
0.0031053
0.00322798
0.00327879
0.00325381
0.00315616
0.00300328
0.00285117
0.00329443
4.47938e-06
2.52836e-06
2.30248e-06
2.33999e-06
2.46889e-06
2.64343e-06
2.84383e-06
3.05847e-06
3.27949e-06
3.50172e-06
3.72291e-06
3.9448e-06
4.17527e-06
4.4151e-06
4.66636e-06
4.94085e-06
5.29439e-06
5.86417e-06
7.18588e-06
1.12701e-05
3.08656e-05
0.000150755
0.000928314
0.00153215
0.00148993
0.00160614
0.00177304
0.00201375
0.00229883
0.00260358
0.00289893
0.00316077
0.00336944
0.00351033
0.00357524
0.00356321
0.00348269
0.0033635
0.00330551
0.00420773
5.34911e-06
2.96799e-06
2.65309e-06
2.64733e-06
2.74469e-06
2.8918e-06
3.0667e-06
3.25711e-06
3.45499e-06
3.65537e-06
3.85658e-06
4.06141e-06
4.27897e-06
4.51216e-06
4.76984e-06
5.07666e-06
5.51292e-06
6.27044e-06
8.04341e-06
1.34221e-05
3.7952e-05
0.000174577
0.000944819
0.00155233
0.00152623
0.00166166
0.00185901
0.0021366
0.0024616
0.00280572
0.00313603
0.00342594
0.00365478
0.00380839
0.0038804
0.00387345
0.00380258
0.00371262
0.00375594
0.00520196
6.20197e-06
3.41898e-06
3.03707e-06
3.0057e-06
3.08575e-06
3.21632e-06
3.3734e-06
3.54438e-06
3.72159e-06
3.90088e-06
4.08184e-06
4.2693e-06
4.47449e-06
4.70351e-06
4.9735e-06
5.32516e-06
5.87034e-06
6.86864e-06
9.20347e-06
1.60955e-05
4.57386e-05
0.000196232
0.000948499
0.00155714
0.0015635
0.00172671
0.00196198
0.00228268
0.00265372
0.00304264
0.00341156
0.00373097
0.00397905
0.00414211
0.00421593
0.00420734
0.00413905
0.00407271
0.00421953
0.00628669
7.0873e-06
3.92275e-06
3.49666e-06
3.45804e-06
3.53487e-06
3.65861e-06
3.80322e-06
3.95613e-06
4.11077e-06
4.26478e-06
4.42036e-06
4.58601e-06
4.7759e-06
5.00099e-06
5.28854e-06
5.69938e-06
6.38555e-06
7.69075e-06
1.07179e-05
1.93357e-05
5.40845e-05
0.000215535
0.000943216
0.00155018
0.00160312
0.0018042
0.00208765
0.00246116
0.00288768
0.00332963
0.00374294
0.00409473
0.00436189
0.00453144
0.00460176
0.00458454
0.00451107
0.00446111
0.00470988
0.00747072
8.13835e-06
4.57599e-06
4.12458e-06
4.09589e-06
4.18172e-06
4.30481e-06
4.43693e-06
4.56605e-06
4.68782e-06
4.80338e-06
4.91962e-06
5.05128e-06
5.21731e-06
5.43479e-06
5.74379e-06
6.2305e-06
7.09833e-06
8.79467e-06
1.26696e-05
2.32184e-05
6.2911e-05
0.000232486
0.000931146
0.00153553
0.00164891
0.00190075
0.00224614
0.00268556
0.00317959
0.00368439
0.00414869
0.00453587
0.00482168
0.00499423
0.00505508
0.00502148
0.0049341
0.00489191
0.00523869
0.00876278
9.64305e-06
5.56621e-06
5.09296e-06
5.08613e-06
5.18842e-06
5.31019e-06
5.41996e-06
5.50675e-06
5.5702e-06
5.61778e-06
5.66473e-06
5.73639e-06
5.85919e-06
6.05795e-06
6.38902e-06
6.97099e-06
8.07353e-06
1.02713e-05
1.51846e-05
2.7873e-05
7.22441e-05
0.000247278
0.000913766
0.00151571
0.00170628
0.00202545
0.00245023
0.00297178
0.00354706
0.00412522
0.00464702
0.00507209
0.00537537
0.00554662
0.00559125
0.00553275
0.00542186
0.00537781
0.00581727
0.0101726
1.2125e-05
7.20742e-06
6.68072e-06
6.69568e-06
6.81406e-06
6.92471e-06
6.9893e-06
6.99725e-06
6.95417e-06
6.87812e-06
6.799e-06
6.76055e-06
6.80138e-06
6.95652e-06
7.30349e-06
8.00299e-06
9.41152e-06
1.22607e-05
1.84593e-05
3.35308e-05
8.229e-05
0.000260395
0.000892681
0.00149612
0.00178196
0.00218937
0.0027147
0.00333721
0.00400853
0.00467052
0.00525573
0.0057203
0.00603898
0.00620389
0.00622495
0.00613248
0.00598791
0.00593177
0.00645801
0.0117123
1.64186e-05
9.96981e-06
9.29361e-06
9.30656e-06
9.42789e-06
9.50741e-06
9.49168e-06
9.36638e-06
9.14272e-06
8.85369e-06
8.55297e-06
8.31622e-06
8.2041e-06
8.26686e-06
8.61086e-06
9.4533e-06
1.12675e-05
1.49827e-05
2.28135e-05
4.06127e-05
9.35643e-05
0.000272759
0.00086988
0.00148278
0.00188407
0.00240557
0.00305625
0.00380071
0.00458324
0.00533896
0.00599238
0.00649698
0.00682818
0.00698127
0.00697129
0.00683581
0.00664735
0.00656878
0.00717611
0.0133999
2.37667e-05
1.45219e-05
1.34928e-05
1.34358e-05
1.35218e-05
1.35335e-05
1.33892e-05
1.3062e-05
1.25627e-05
1.1939e-05
1.12766e-05
1.07018e-05
1.0318e-05
1.02019e-05
1.0503e-05
1.15184e-05
1.38855e-05
1.87941e-05
2.87915e-05
4.98982e-05
0.000107134
0.000285998
0.000848023
0.00148244
0.00202285
0.00268973
0.00349397
0.00438281
0.00529138
0.00614931
0.00687419
0.00741813
0.0077585
0.00789457
0.00784684
0.00766027
0.00741865
0.00730811
0.00799227
0.0152632
3.60124e-05
2.18093e-05
2.00476e-05
1.97755e-05
1.97405e-05
1.96146e-05
1.92699e-05
1.86547e-05
1.77689e-05
1.6666e-05
1.54637e-05
1.43553e-05
1.35214e-05
1.30882e-05
1.32765e-05
1.45058e-05
1.76582e-05
2.42962e-05
3.73646e-05
6.28701e-05
0.000125124
0.000303029
0.000830945
0.00150366
0.00221209
0.0030615
0.00405013
0.00510595
0.00615379
0.00711986
0.00791713
0.00849855
0.008845
0.00896039
0.00887067
0.00862769
0.00832621
0.00817653
0.00893671
0.0173492
5.59105e-05
3.31646e-05
2.99998e-05
2.92371e-05
2.89152e-05
2.85254e-05
2.78671e-05
2.68491e-05
2.5447e-05
2.3706e-05
2.17631e-05
1.98804e-05
1.83606e-05
1.74159e-05
1.73896e-05
1.89032e-05
2.32335e-05
3.25392e-05
5.03444e-05
8.24672e-05
0.000151883
0.000329513
0.000825393
0.0015596
0.00247243
0.00354676
0.00475119
0.00599396
0.00719029
0.0082658
0.00913307
0.00974934
0.0101008
0.0101961
0.0100657
0.00976685
0.00940428
0.00921327
0.0100556
0.0197365
8.75534e-05
5.04356e-05
4.47167e-05
4.2969e-05
4.20632e-05
4.11954e-05
4.00502e-05
3.84757e-05
3.64075e-05
3.3864e-05
3.09794e-05
2.80648e-05
2.5594e-05
2.39076e-05
2.35535e-05
2.54997e-05
3.17057e-05
4.54103e-05
7.12528e-05
0.000114831
0.000196929
0.000377511
0.000843412
0.00167278
0.00283675
0.00418049
0.00562761
0.00706933
0.00841514
0.00959308
0.0105234
0.0111728
0.0115341
0.0116194
0.0114607
0.0111178
0.0107032
0.010478
0.0114212
0.0225563
0.000136942
7.61202e-05
6.59299e-05
6.23491e-05
6.03525e-05
5.86582e-05
5.67689e-05
5.44397e-05
5.15445e-05
4.80535e-05
4.40666e-05
3.99013e-05
3.62521e-05
3.3635e-05
3.29051e-05
3.56179e-05
4.49485e-05
6.63447e-05
0.000107138
0.000173538
0.0002831
0.000476783
0.000924367
0.0018895
0.00336247
0.00500797
0.00670588
0.00833844
0.00981788
0.0110786
0.0120622
0.0127503
0.0131417
0.0132473
0.0130943
0.0127395
0.0122996
0.0120632
0.0131474
0.0260233
0.000212831
0.00011355
9.57721e-05
8.89617e-05
8.50501e-05
8.1986e-05
7.89828e-05
7.56549e-05
7.17886e-05
6.72842e-05
6.21762e-05
5.67319e-05
5.18459e-05
4.8344e-05
4.74575e-05
5.1667e-05
6.61589e-05
0.000101085
0.00017203
0.000289813
0.000470334
0.000701926
0.00109627
0.0022878
0.00414617
0.00608287
0.00799203
0.00976757
0.0113362
0.0126427
0.0136739
0.0144289
0.0149044
0.0150984
0.0150226
0.0147217
0.0143125
0.014114
0.0154138
0.0304817
0.00032797
0.000167182
0.00013695
0.000124751
0.000117684
0.000112471
0.000107869
0.000103284
9.8391e-05
9.30212e-05
8.71542e-05
8.10198e-05
7.53771e-05
7.17388e-05
7.17588e-05
7.92389e-05
0.000101854
0.000160267
0.000291386
0.000534947
0.000934789
0.00132808
0.00156267
0.00290016
0.00511392
0.00724808
0.0092655
0.0111007
0.0127041
0.0140444
0.0151702
0.0160877
0.0167734
0.0171936
0.0173295
0.0172035
0.0169277
0.0168583
0.0185051
0.0364711
0.00050105
0.000243086
0.000193049
0.000172324
0.000160393
0.00015204
0.00014531
0.000139297
0.000133547
0.000127856
0.000122239
0.000116996
0.000113005
0.000112897
0.000119276
0.000138222
0.00018304
0.000284475
0.000525373
0.00101776
0.00213165
0.00289259
0.00226737
0.00369033
0.00584235
0.00797862
0.00996372
0.0117781
0.0134077
0.01488
0.0162681
0.0175597
0.0186889
0.0195724
0.020145
0.0203962
0.0204285
0.0206465
0.0228601
0.0448385
0.000740053
0.000341769
0.00026401
0.000231796
0.000213718
0.000201801
0.000193093
0.00018629
0.000180826
0.000176581
0.00017385
0.000173485
0.000177327
0.000189273
0.000214943
0.000265973
0.000367273
0.000575443
0.00102392
0.00179857
0.00268623
0.00301388
0.00289323
0.00419078
0.00611093
0.00805793
0.00987925
0.0116036
0.0132763
0.0149942
0.0168188
0.0187017
0.0205208
0.0221282
0.0233982
0.0242748
0.0248438
0.0255648
0.028624
0.0558634
0.00103927
0.000459572
0.000347622
0.00030211
0.000277606
0.000262619
0.00025297
0.000246927
0.000243899
0.000244053
0.000248298
0.000258546
0.00027835
0.000311758
0.00036816
0.000463974
0.000628698
0.000911681
0.00136995
0.00199488
0.00265821
0.00303916
0.00327178
0.00441296
0.00602009
0.00766184
0.00922931
0.0108105
0.0125276
0.0145347
0.0168818
0.0194848
0.022163
0.0246972
0.026892
0.0286347
0.0299844
0.031455
0.0356607
0.0692543
0.00139725
0.000596895
0.000444353
0.000384123
0.000353244
0.000335883
0.000326388
0.000322549
0.000323782
0.000330599
0.000344556
0.000368436
0.000405006
0.000459386
0.000541428
0.000665382
0.000852026
0.00112894
0.00152171
0.00203092
0.00260147
0.00306439
0.00348131
0.00442721
0.00569258
0.0069808
0.00824661
0.00964429
0.0113879
0.0136797
0.0165739
0.0199655
0.0236237
0.0272609
0.030606
0.0334792
0.0359014
0.0384365
0.0441814
0.0854032
0.001782
0.000743676
0.000549308
0.000474731
0.000438136
0.000419116
0.000410497
0.00040957
0.000415693
0.000429528
0.000453052
0.000487218
0.000535396
0.000603436
0.000698786
0.000831246
0.00101383
0.00126351
0.00160004
0.0020404
0.00257475
0.00308792
0.00357317
0.00432855
0.00526665
0.00620641
0.00716626
0.0083606
0.0100959
0.0126206
0.016025
0.0202066
0.0249076
0.0297863
0.0344991
0.0387897
0.0426303
0.0466295
0.0544283
0.104815
0.0021623
0.000890235
0.000656282
0.000568669
0.000527162
0.000506972
0.000499461
0.000501472
0.000512348
0.00053185
0.000560576
0.000601608
0.000658346
0.000734993
0.000836755
0.000970293
0.00114472
0.00137364
0.00167755
0.00208347
0.00260023
0.00314963
0.00364208
0.00422453
0.00487879
0.00551712
0.0062174
0.00722696
0.00891713
0.0115902
0.0154212
0.0203232
0.0260541
0.0322571
0.0385323
0.0445398
0.0501977
0.0561554
0.0666734
0.12814
0.00250553
0.00102639
0.000758235
0.000659544
0.000613944
0.000592928
0.000586386
0.000590381
0.000603582
0.000626938
0.000661948
0.000710795
0.0007762
0.00086149
0.000970781
0.0011095
0.00128571
0.00151284
0.00181339
0.00222056
0.00275178
0.00332299
0.00380103
0.00424149
0.00467132
0.00508032
0.005594
0.00648888
0.00816185
0.0109407
0.0150469
0.0205172
0.0271811
0.0347176
0.0427089
0.0507207
0.0586351
0.0671445
0.0812222
0.156211
0.00279619
0.00114555
0.000848557
0.000739975
0.000689954
0.000667125
0.000661006
0.000667653
0.00068597
0.000716427
0.000760429
0.00082009
0.000898183
0.000998229
0.00112477
0.00128398
0.00148523
0.00174351
0.00208315
0.00253908
0.00312773
0.00374392
0.00421862
0.00455506
0.00481064
0.00506188
0.0054822
0.0063394
0.00805026
0.010959
0.0153188
0.0212466
0.0286841
0.0374171
0.0471084
0.057372
0.0680043
0.0797589
0.0984342
0.190132
0.00302753
0.00123056
0.000911686
0.000797268
0.000746505
0.00072572
0.000723619
0.000736215
0.000762638
0.000803645
0.000861086
0.000937807
0.0010378
0.00116653
0.0013314
0.00154248
0.00181415
0.00216657
0.00262594
0.00322792
0.0039641
0.00468808
0.00519496
0.00545492
0.00558872
0.00577508
0.00619608
0.00711199
0.00896591
0.0120671
0.0166523
0.0229107
0.030947
0.0407458
0.0521322
0.064796
0.0785353
0.0942197
0.118769
0.231497
0.00317876
0.00128371
0.000953399
0.000837746
0.000789056
0.000772485
0.000776751
0.000798212
0.00083652
0.000893207
0.000971401
0.00107609
0.00121473
0.00139824
0.00164202
0.00196737
0.00240271
0.00298136
0.00374306
0.00470635
0.00578923
0.00674658
0.00732493
0.00751638
0.00760509
0.00781964
0.00834782
0.00944414
0.0115787
0.0149317
0.0196879
0.0261129
0.0345181
0.0451675
0.0581496
0.0733252
0.0905757
0.111007
0.143081
0.28268
0.00327045
0.00131372
0.000978243
0.000864067
0.00081962
0.000809677
0.000823352
0.000857685
0.000913338
0.000993517
0.00110426
0.00125545
0.00146267
0.00174975
0.00215203
0.00272019
0.00352213
0.00463639
0.00610938
0.0079254
0.00977173
0.0111577
0.0117881
0.0119252
0.0120258
0.0123451
0.0130719
0.0144492
0.0169307
0.0204752
0.0252428
0.0315985
0.0400869
0.0513087
0.0657124
0.0834441
0.104564
0.130522
0.171708
0.344779
0.00330302
0.00132428
0.000989955
0.000880099
0.000842453
0.00084234
0.000869769
0.000923007
0.00100466
0.00112139
0.00128545
0.00151752
0.0018514
0.00234077
0.00306889
0.00415648
0.00576549
0.00808476
0.0111263
0.0147842
0.0180842
0.0200456
0.0206389
0.0206822
0.0207433
0.0211216
0.0220004
0.0236253
0.0262542
0.0296944
0.0341515
0.0401091
0.0483445
0.0598236
0.0754396
0.0957467
0.121099
0.153413
0.205456
0.42013
0.00328658
0.00131966
0.00099267
0.000890759
0.000863987
0.000879187
0.000928002
0.00101109
0.00113521
0.00131461
0.00157552
0.00196357
0.00255547
0.00347486
0.00492014
0.00715471
0.010496
0.0153305
0.0213367
0.0281508
0.0334277
0.0358991
0.0363834
0.0360884
0.0358057
0.0359113
0.0366019
0.038196
0.0403921
0.0432195
0.0469357
0.0521267
0.0597761
0.0712195
0.087867
0.110816
0.140853
0.180498
0.245344
0.511576
0.00323085
0.00130428
0.000991565
0.000903693
0.000895815
0.000937463
0.00102359
0.00116071
0.00136628
0.00167381
0.00214439
0.00289064
0.00410289
0.0060597
0.0092329
0.0140485
0.0208363
0.0301194
0.040411
0.0505503
0.0575993
0.0604287
0.0604509
0.0593113
0.0580985
0.0573118
0.0571967
0.0579882
0.0591573
0.0608673
0.0634551
0.0675878
0.0744185
0.0856421
0.103256
0.129061
0.164459
0.212714
0.292649
0.62279
0.00314511
0.00128313
0.00099516
0.000934382
0.000964023
0.001059
0.00122316
0.00148178
0.00188725
0.0025361
0.0035925
0.00538048
0.00840314
0.013158
0.0205511
0.0306455
0.0430179
0.0570732
0.0712919
0.0836294
0.0911142
0.0932786
0.0920395
0.0893364
0.0864875
0.084121
0.0825599
0.0817485
0.081332
0.0815449
0.0827698
0.0857205
0.0916776
0.102677
0.121376
0.150494
0.192327
0.251061
0.349017
0.758823
0.00304333
0.00126739
0.00102599
0.00102654
0.00114753
0.00138088
0.00176379
0.00240258
0.00350031
0.00543028
0.00865516
0.0141134
0.0228246
0.0345987
0.0493692
0.0662422
0.083942
0.101045
0.116164
0.127252
0.132276
0.131875
0.128211
0.123172
0.11808
0.113614
0.110126
0.107135
0.10483
0.103406
0.103247
0.105084
0.110293
0.121228
0.141292
0.174424
0.224331
0.296456
0.416705
0.927209
0.00293589
0.00128753
0.00116257
0.00135064
0.00179567
0.0025899
0.00395332
0.00648559
0.0111108
0.0192718
0.0312963
0.0477153
0.0677298
0.0895288
0.111344
0.131813
0.149468
0.163411
0.173062
0.177465
0.176465
0.171589
0.164508
0.156631
0.14902
0.142251
0.136356
0.131275
0.127175
0.124251
0.122885
0.123819
0.128497
0.139556
0.161209
0.199042
0.259151
0.349248
0.499057
1.14131
0.00287347
0.00151071
0.00188147
0.00307863
0.00574324
0.0109999
0.0201098
0.0362288
0.0583516
0.0862178
0.117795
0.149427
0.177804
0.200852
0.217932
0.229273
0.234844
0.235606
0.231794
0.224889
0.216016
0.206252
0.195706
0.185169
0.175282
0.166351
0.158401
0.151605
0.14607
0.141982
0.13972
0.14002
0.14435
0.155525
0.178484
0.220817
0.29269
0.407345
0.602415
1.436
0.00298175
0.00361931
0.00891791
0.0228904
0.0550267
0.104043
0.157858
0.213811
0.266404
0.310428
0.342618
0.359615
0.363564
0.358257
0.347112
0.331425
0.313769
0.295517
0.277483
0.259967
0.24403
0.229995
0.217012
0.204787
0.193419
0.183079
0.17393
0.1661
0.159702
0.15493
0.152159
0.1521
0.156156
0.167103
0.1902
0.234588
0.316046
0.463052
0.75461
1.98719
0.00848632
0.0356525
0.109768
0.266435
0.516222
0.664479
0.733864
0.746608
0.722283
0.677603
0.621528
0.56444
0.511614
0.464581
0.422905
0.385992
0.352991
0.323384
0.297038
0.273931
0.254745
0.239103
0.225443
0.212975
0.201455
0.19094
0.181586
0.173543
0.16696
0.162056
0.159203
0.159057
0.162873
0.173159
0.194849
0.237672
0.322008
0.500006
0.943631
2.78444
0.289387
0.274594
0.261926
0.25093
0.241298
0.2328
0.225258
0.218532
0.212507
0.207089
0.2022
0.197772
0.193751
0.190089
0.186743
0.18368
0.180869
0.178283
0.175898
0.173695
0.171655
0.169763
0.168005
0.166368
0.16484
0.163411
0.162071
0.16081
0.159611
0.158375
0.0340911
0.0458824
0.0517444
0.0546168
0.0558129
0.0560349
0.0556871
0.0550113
0.0541559
0.0532132
0.0522408
0.0512741
0.0503347
0.0494352
0.0485824
0.0477793
0.0470266
0.0463233
0.0456679
0.0450582
0.0444918
0.0439665
0.0434803
0.0430318
0.0426204
0.0422474
0.0419173
0.0416415
0.0414425
0.0413629
0.0147115
0.018781
0.0216651
0.023645
0.0249651
0.0258101
0.0263142
0.0265745
0.0266612
0.0266255
0.0265044
0.0263249
0.0261067
0.0258642
0.0256079
0.0253454
0.0250821
0.024822
0.0245678
0.0243214
0.0240843
0.0238573
0.0236411
0.0234362
0.0232432
0.0230622
0.0228941
0.0227402
0.0226017
0.0224789
0.0111938
0.0126722
0.0139679
0.0150128
0.0158216
0.01643
0.0168751
0.0171897
0.0174016
0.0175331
0.0176021
0.017623
0.017607
0.0175632
0.0174985
0.0174186
0.0173278
0.0172296
0.0171267
0.0170211
0.0169146
0.0168085
0.0167038
0.0166014
0.016502
0.0164063
0.0163147
0.0162279
0.0161462
0.0160696
0.0102522
0.0107501
0.0112917
0.0117943
0.0122276
0.0125857
0.0128728
0.0130969
0.0132669
0.0133916
0.0134785
0.0135346
0.0135654
0.0135759
0.01357
0.0135512
0.0135222
0.0134853
0.0134424
0.013395
0.0133445
0.0132918
0.0132379
0.0131835
0.0131293
0.0130756
0.013023
0.0129717
0.012922
0.0128739
0.00996462
0.0100606
0.0102292
0.0104229
0.0106137
0.010787
0.0109368
0.0110615
0.011162
0.0112403
0.0112989
0.0113403
0.0113671
0.0113816
0.0113856
0.011381
0.0113694
0.011352
0.01133
0.0113044
0.011276
0.0112455
0.0112136
0.0111806
0.0111471
0.0111134
0.0110798
0.0110465
0.0110138
0.0109816
0.00987366
0.00980565
0.00979205
0.00981356
0.00985375
0.00990104
0.00994809
0.00999065
0.0100265
0.0100548
0.0100754
0.0100887
0.0100953
0.0100958
0.0100912
0.0100821
0.0100692
0.0100531
0.0100344
0.0100137
0.00999127
0.00996765
0.00994313
0.00991801
0.00989255
0.00986697
0.00984144
0.00981612
0.00979109
0.00976637
0.00984485
0.00971264
0.00961467
0.00954526
0.0094972
0.00946385
0.00943989
0.00942141
0.00940571
0.00939097
0.00937606
0.00936032
0.00934342
0.00932522
0.00930574
0.00928508
0.00926338
0.00924081
0.00921755
0.00919378
0.00916966
0.00914534
0.00912097
0.00909668
0.00907258
0.00904875
0.00902529
0.00900225
0.00897966
0.00895749
0.0098358
0.00967965
0.00954517
0.00943122
0.00933525
0.00925416
0.00918492
0.00912487
0.00907185
0.00902415
0.00898048
0.00893986
0.00890159
0.00886516
0.0088302
0.00879647
0.00876379
0.00873205
0.00870117
0.00867111
0.00864185
0.00861337
0.00858567
0.00855874
0.00853259
0.00850722
0.00848261
0.00845878
0.00843569
0.00841325
0.00983298
0.00966833
0.00951908
0.00938497
0.00926508
0.00915807
0.00906237
0.00897643
0.0088988
0.0088282
0.00876354
0.00870392
0.0086486
0.00859696
0.00854852
0.00850288
0.00845971
0.00841877
0.00837984
0.00834274
0.00830733
0.0082735
0.00824114
0.00821016
0.00818049
0.00815207
0.00812482
0.0080987
0.00807363
0.00804947
0.00983212
0.00966457
0.0095097
0.00936712
0.00923625
0.00911634
0.00900652
0.00890587
0.00881344
0.00872836
0.00864982
0.00857708
0.00850951
0.00844653
0.00838768
0.00833251
0.00828069
0.00823188
0.00818583
0.00814231
0.00810111
0.00806205
0.00802498
0.00798976
0.00795628
0.00792441
0.00789407
0.00786515
0.00783756
0.00781111
0.00983185
0.00966335
0.00950647
0.00936056
0.00922501
0.0090992
0.00898248
0.00887419
0.00877366
0.00868025
0.00859335
0.00851239
0.00843684
0.00836622
0.00830011
0.00823811
0.00817987
0.0081251
0.00807349
0.00802482
0.00797886
0.00793541
0.00789429
0.00785534
0.00781842
0.00778339
0.00775013
0.00771852
0.00768845
0.00765971
0.00983177
0.00966297
0.00950539
0.00935825
0.00922085
0.00909254
0.00897271
0.00886078
0.00875618
0.00865839
0.00856691
0.00848125
0.00840098
0.00832568
0.00825499
0.00818854
0.00812602
0.00806714
0.00801164
0.00795927
0.00790981
0.00786306
0.00781884
0.00777699
0.00773733
0.00769974
0.00766409
0.00763025
0.00759808
0.00756736
0.00983175
0.00966285
0.00950504
0.00935747
0.00921938
0.00909008
0.00896895
0.00885541
0.00874894
0.00864904
0.00855525
0.00846714
0.00838432
0.00830641
0.00823307
0.00816399
0.00809887
0.00803744
0.00797945
0.00792467
0.00787288
0.0078239
0.00777754
0.00773364
0.00769204
0.0076526
0.00761518
0.00757967
0.00754591
0.00751368
0.00983174
0.00966281
0.00950493
0.00935722
0.00921888
0.00908921
0.00896757
0.00885337
0.0087461
0.00864526
0.0085504
0.00846112
0.00837703
0.00829778
0.00822306
0.00815255
0.00808598
0.0080231
0.00796366
0.00790745
0.00785426
0.0078039
0.0077562
0.00771099
0.00766813
0.00762747
0.00758888
0.00755224
0.0075174
0.00748412
0.00983173
0.0096628
0.0095049
0.00935713
0.00921871
0.00908891
0.00896708
0.00885263
0.00874503
0.0086438
0.00854849
0.00845868
0.00837401
0.00829414
0.00821874
0.00814753
0.00808022
0.00801658
0.00795638
0.00789939
0.00784542
0.00779429
0.00774582
0.00769985
0.00765624
0.00761485
0.00757555
0.00753822
0.0075027
0.00746877
0.00983173
0.0096628
0.00950489
0.0093571
0.00921865
0.0090888
0.0089669
0.00885236
0.00874465
0.00864326
0.00854776
0.00845774
0.00837283
0.00829268
0.00821698
0.00814544
0.00807779
0.00801379
0.00795321
0.00789583
0.00784147
0.00778993
0.00774106
0.00769469
0.00765068
0.00760889
0.00756919
0.00753147
0.00749557
0.00746125
0.00983173
0.0096628
0.00950488
0.00935709
0.00921863
0.00908876
0.00896684
0.00885227
0.0087445
0.00864306
0.00854749
0.00845738
0.00837237
0.00829211
0.00821628
0.0081446
0.00807681
0.00801264
0.00795189
0.00789434
0.00783979
0.00778807
0.007739
0.00769243
0.00764822
0.00760623
0.00756633
0.0075284
0.0074923
0.00745779
0.00983173
0.0096628
0.00950488
0.00935709
0.00921862
0.00908875
0.00896682
0.00885223
0.00874445
0.00864298
0.00854738
0.00845725
0.0083722
0.00829189
0.00821601
0.00814428
0.00807642
0.00801219
0.00795137
0.00789374
0.00783911
0.0077873
0.00773815
0.00769149
0.00764719
0.0076051
0.00756511
0.00752708
0.00749089
0.00745627
0.00983173
0.0096628
0.00950488
0.00935709
0.00921862
0.00908874
0.00896681
0.00885221
0.00874442
0.00864295
0.00854734
0.00845719
0.00837212
0.0082918
0.00821591
0.00814415
0.00807627
0.00801201
0.00795116
0.0078935
0.00783884
0.00778699
0.0077378
0.00769111
0.00764677
0.00760464
0.00756461
0.00752654
0.0074903
0.00745565
0.00983173
0.0096628
0.00950489
0.0093571
0.00921862
0.00908874
0.0089668
0.00885221
0.00874441
0.00864293
0.00854732
0.00845717
0.00837209
0.00829176
0.00821586
0.0081441
0.0080762
0.00801194
0.00795107
0.0078934
0.00783873
0.00778687
0.00773767
0.00769096
0.0076466
0.00760446
0.00756441
0.00752632
0.00749007
0.00745539
0.00983174
0.00966281
0.00950489
0.0093571
0.00921863
0.00908875
0.0089668
0.0088522
0.00874441
0.00864293
0.00854731
0.00845715
0.00837208
0.00829174
0.00821584
0.00814407
0.00807617
0.00801191
0.00795104
0.00789336
0.00783868
0.00778682
0.00773761
0.00769089
0.00764653
0.00760438
0.00756433
0.00752624
0.00748997
0.00745529
0.00983174
0.00966281
0.0095049
0.00935711
0.00921863
0.00908875
0.00896681
0.00885221
0.00874441
0.00864293
0.00854731
0.00845715
0.00837207
0.00829174
0.00821583
0.00814406
0.00807616
0.00801189
0.00795102
0.00789334
0.00783866
0.0077868
0.00773759
0.00769087
0.0076465
0.00760435
0.00756429
0.0075262
0.00748993
0.00745525
0.00983174
0.00966281
0.0095049
0.00935711
0.00921864
0.00908876
0.00896682
0.00885221
0.00874442
0.00864293
0.00854731
0.00845715
0.00837207
0.00829174
0.00821583
0.00814406
0.00807616
0.00801189
0.00795102
0.00789334
0.00783866
0.00778679
0.00773758
0.00769086
0.00764649
0.00760434
0.00756428
0.00752619
0.00748992
0.00745524
0.00983174
0.00966282
0.00950491
0.00935712
0.00921865
0.00908877
0.00896683
0.00885222
0.00874443
0.00864294
0.00854732
0.00845716
0.00837208
0.00829174
0.00821583
0.00814406
0.00807616
0.00801189
0.00795102
0.00789334
0.00783866
0.00778679
0.00773758
0.00769086
0.00764649
0.00760434
0.00756428
0.00752619
0.00748992
0.00745524
0.00983174
0.00966283
0.00950492
0.00935713
0.00921866
0.00908878
0.00896684
0.00885224
0.00874444
0.00864295
0.00854733
0.00845717
0.00837209
0.00829175
0.00821584
0.00814407
0.00807617
0.0080119
0.00795103
0.00789335
0.00783867
0.0077868
0.00773759
0.00769087
0.0076465
0.00760435
0.00756429
0.0075262
0.00748993
0.00745525
0.00983175
0.00966283
0.00950493
0.00935714
0.00921867
0.00908879
0.00896685
0.00885225
0.00874445
0.00864297
0.00854735
0.00845718
0.00837211
0.00829177
0.00821586
0.00814409
0.00807619
0.00801192
0.00795104
0.00789336
0.00783868
0.00778682
0.0077376
0.00769089
0.00764652
0.00760437
0.00756431
0.00752622
0.00748995
0.00745526
0.00983175
0.00966284
0.00950493
0.00935715
0.00921868
0.00908881
0.00896687
0.00885227
0.00874447
0.00864298
0.00854736
0.0084572
0.00837212
0.00829179
0.00821588
0.00814411
0.00807621
0.00801193
0.00795106
0.00789338
0.0078387
0.00778684
0.00773762
0.00769091
0.00764654
0.00760439
0.00756433
0.00752624
0.00748997
0.00745529
0.00983175
0.00966284
0.00950494
0.00935716
0.0092187
0.00908882
0.00896688
0.00885228
0.00874449
0.008643
0.00854738
0.00845722
0.00837214
0.00829181
0.0082159
0.00814413
0.00807623
0.00801196
0.00795109
0.00789341
0.00783873
0.00778686
0.00773765
0.00769093
0.00764657
0.00760442
0.00756436
0.00752627
0.00749
0.00745532
0.00983176
0.00966285
0.00950495
0.00935718
0.00921871
0.00908884
0.0089669
0.0088523
0.00874451
0.00864302
0.00854741
0.00845725
0.00837217
0.00829183
0.00821592
0.00814415
0.00807626
0.00801198
0.00795112
0.00789344
0.00783876
0.00778689
0.00773768
0.00769096
0.0076466
0.00760445
0.00756439
0.0075263
0.00749003
0.00745535
0.00983176
0.00966286
0.00950496
0.00935719
0.00921873
0.00908886
0.00896692
0.00885232
0.00874453
0.00864305
0.00854743
0.00845727
0.00837219
0.00829186
0.00821595
0.00814418
0.00807629
0.00801202
0.00795115
0.00789347
0.00783879
0.00778693
0.00773772
0.007691
0.00764663
0.00760449
0.00756443
0.00752634
0.00749007
0.00745539
0.00983176
0.00966286
0.00950497
0.0093572
0.00921874
0.00908887
0.00896694
0.00885235
0.00874455
0.00864307
0.00854746
0.0084573
0.00837222
0.00829189
0.00821598
0.00814421
0.00807632
0.00801205
0.00795118
0.00789351
0.00783883
0.00778696
0.00773775
0.00769104
0.00764667
0.00760453
0.00756447
0.00752638
0.00749012
0.00745543
0.00983177
0.00966287
0.00950499
0.00935722
0.00921876
0.00908889
0.00896696
0.00885237
0.00874458
0.0086431
0.00854749
0.00845733
0.00837226
0.00829192
0.00821602
0.00814425
0.00807635
0.00801209
0.00795122
0.00789354
0.00783887
0.00778701
0.0077378
0.00769108
0.00764672
0.00760457
0.00756452
0.00752643
0.00749016
0.00745548
0.00983177
0.00966288
0.009505
0.00935723
0.00921878
0.00908891
0.00896698
0.00885239
0.00874461
0.00864313
0.00854752
0.00845736
0.00837229
0.00829196
0.00821605
0.00814429
0.00807639
0.00801213
0.00795126
0.00789359
0.00783891
0.00778705
0.00773784
0.00769113
0.00764677
0.00760462
0.00756457
0.00752648
0.00749022
0.00745553
0.00983177
0.00966289
0.00950501
0.00935725
0.0092188
0.00908894
0.00896701
0.00885242
0.00874464
0.00864316
0.00854755
0.0084574
0.00837233
0.008292
0.00821609
0.00814433
0.00807644
0.00801217
0.00795131
0.00789363
0.00783896
0.0077871
0.00773789
0.00769118
0.00764682
0.00760467
0.00756462
0.00752653
0.00749027
0.00745559
0.00983178
0.0096629
0.00950502
0.00935726
0.00921882
0.00908896
0.00896703
0.00885245
0.00874467
0.00864319
0.00854758
0.00845743
0.00837236
0.00829204
0.00821613
0.00814437
0.00807648
0.00801222
0.00795135
0.00789368
0.00783901
0.00778715
0.00773794
0.00769123
0.00764687
0.00760473
0.00756468
0.00752659
0.00749033
0.00745565
0.00983178
0.00966291
0.00950504
0.00935728
0.00921884
0.00908898
0.00896706
0.00885248
0.0087447
0.00864323
0.00854762
0.00845747
0.0083724
0.00829208
0.00821618
0.00814442
0.00807653
0.00801226
0.0079514
0.00789373