/*--------------------------------*- C++ -*----------------------------------*\
| =========                 |                                                 |
| \\      /  F ield         | OpenFOAM: The Open Source CFD Toolbox           |
|  \\    /   O peration     | Version:  2.2.0                                 |
|   \\  /    A nd           | Web:      www.OpenFOAM.org                      |
|    \\/     M anipulation  |                                                 |
\*---------------------------------------------------------------------------*/
FoamFile
{
    version     2.0;
    format      ascii;
    class       volScalarField;
    location    "2000";
    object      k;
}
// * * * * * * * * * * * * * * * * * * * * * * * * * * * * * * * * * * * * * //

dimensions      [0 2 -2 0 0 0 0];

internalField   nonuniform List<scalar> 
7600
(
9.62967e-06
2.2595e-05
3.61945e-05
4.87697e-05
6.06492e-05
7.15225e-05
8.16387e-05
9.09528e-05
9.93996e-05
0.000106903
0.000113391
0.000118766
0.000123639
0.000127729
0.000131382
0.000134122
0.0001387
0.000141094
0.000144385
0.000147015
0.000178227
0.000337215
0.00188253
0.00338562
0.00431237
0.00520891
0.00589665
0.00646976
0.00694099
0.0073067
0.00749406
0.00749685
0.00730964
0.00693049
0.0063618
0.00561112
0.00469268
0.00363513
0.00247845
0.000845019
2.12133e-05
5.60501e-05
8.45194e-05
0.000110291
0.000134392
0.000156979
0.000178109
0.000197754
0.000215839
0.000232281
0.000247022
0.000260093
0.000271916
0.000282382
0.000292159
0.000301011
0.000312094
0.000319306
0.000327912
0.000340566
0.000434656
0.00090841
0.00367112
0.00653535
0.00760139
0.00899114
0.0101557
0.0112602
0.0122507
0.0130658
0.0136333
0.0139022
0.0138268
0.0133685
0.0124978
0.0111961
0.00945828
0.00729634
0.00474802
0.00211364
3.24892e-05
8.10386e-05
0.000116025
0.000147482
0.000177191
0.000205409
0.000232109
0.00025719
0.000280525
0.000301998
0.000321542
0.000339225
0.000355484
0.000370258
0.000383891
0.000396335
0.000409815
0.000419897
0.000432841
0.000458454
0.000611854
0.00136877
0.00524663
0.00922151
0.0103325
0.011875
0.0131807
0.0144741
0.015668
0.0166839
0.0174153
0.0177794
0.0177081
0.0171486
0.0160676
0.0144538
0.012319
0.0096956
0.00659015
0.00311143
4.24083e-05
0.000102284
0.00014285
0.000178328
0.000211708
0.000243609
0.000274066
0.000302949
0.000330086
0.000355323
0.000378577
0.000399924
0.000419789
0.000438109
0.000455017
0.000470545
0.000486396
0.000499882
0.000519136
0.000562827
0.000788475
0.00185102
0.00663523
0.0114382
0.012549
0.0141542
0.0155505
0.0169945
0.0183658
0.0195557
0.0204249
0.0208672
0.0208023
0.0201747
0.0189558
0.0171414
0.014744
0.0117785
0.00818761
0.00402003
5.15787e-05
0.000121397
0.000167252
0.000206329
0.000242735
0.000277548
0.000310976
0.000342932
0.000373229
0.000401686
0.000428199
0.000452835
0.000475999
0.000497595
0.000517662
0.000536336
0.000555217
0.000573392
0.000601841
0.000669925
0.000983175
0.00236128
0.00787238
0.0132802
0.0144352
0.0161007
0.0176068
0.0192203
0.0207844
0.0221549
0.023162
0.0236822
0.0236287
0.0229477
0.0216151
0.0196293
0.0169958
0.0137087
0.00966454
0.00489527
5.98026e-05
0.000138725
0.00018968
0.000232305
0.000271599
0.000309069
0.000345144
0.000379836
0.000412986
0.000444408
0.000473981
0.000501764
0.000528148
0.000552986
0.000576341
0.000598531
0.00062145
0.000646121
0.000687379
0.000787065
0.00120172
0.00288585
0.00892671
0.0148084
0.0160769
0.017837
0.0194962
0.0213138
0.0230958
0.0246618
0.0258132
0.0264123
0.0263694
0.0256335
0.0241853
0.0220251
0.0191542
0.0155518
0.0110811
0.00576264
6.73232e-05
0.000154406
0.000210335
0.000256611
0.000298917
0.000339095
0.000377787
0.000415129
0.000451029
0.000485324
0.000517899
0.000548819
0.00057847
0.000606688
0.000633641
0.000659972
0.000688255
0.000721768
0.000780225
0.000919319
0.00144553
0.00340943
0.00977641
0.0160645
0.0175326
0.0194435
0.0213152
0.023383
0.0254183
0.0272038
0.0285111
0.0291905
0.0291513
0.0283472
0.026766
0.0244139
0.0212931
0.0173734
0.0124875
0.00663795
7.43228e-05
0.000168855
0.000229726
0.000279878
0.000325487
0.000368631
0.000410114
0.000450197
0.000488875
0.000526044
0.000561635
0.000595763
0.000628809
0.000660664
0.000691694
0.000723044
0.000758386
0.000803705
0.000884603
0.00107113
0.00171435
0.00392261
0.0104767
0.0170903
0.0188554
0.0209942
0.023155
0.0255328
0.027867
0.029902
0.031378
0.0321353
0.0320846
0.0311882
0.0294449
0.0268716
0.0234772
0.0192261
0.0139189
0.0075313
8.12746e-05
0.00018308
0.000249129
0.000303577
0.000352955
0.000399478
0.000444056
0.000487055
0.000528577
0.000568621
0.000607219
0.00064462
0.000681219
0.000717054
0.000752796
0.000790315
0.000834849
0.000895684
0.0010052
0.00124701
0.00200786
0.00442004
0.0110577
0.0179297
0.020103
0.0225691
0.0251152
0.0278771
0.0305635
0.0328791
0.0345328
0.0353574
0.0352698
0.0342453
0.032299
0.0294636
0.0257595
0.0211492
0.0153986
0.00844948
8.91845e-05
0.000199172
0.000271243
0.000330791
0.000384645
0.000435097
0.000483118
0.000529168
0.000573482
0.000616225
0.00065763
0.000698191
0.000738445
0.000778617
0.00081983
0.000864955
0.000921355
0.00100233
0.00114766
0.00145227
0.00232701
0.00490009
0.0115393
0.0186288
0.0213398
0.0242586
0.0273061
0.0305379
0.0336319
0.0362542
0.0380852
0.0389554
0.0387933
0.037593
0.0353913
0.0322418
0.0281807
0.0231707
0.0169414
0.00939758
9.9956e-05
0.000221054
0.000301104
0.000367243
0.000426679
0.000481778
0.000533555
0.000582574
0.000629263
0.00067407
0.000717597
0.000760797
0.000804505
0.000849222
0.000896704
0.000951161
0.00102276
0.00112964
0.00131922
0.00169391
0.00267568
0.00536571
0.0119379
0.0192228
0.0226371
0.0261622
0.0298447
0.0336393
0.0371918
0.0401359
0.0421304
0.0430107
0.0427237
0.0412889
0.0387699
0.0352453
0.0307704
0.0253103
0.0185573
0.0103802
0.000116562
0.000254851
0.000346656
0.000422039
0.000488899
0.000549738
0.000605619
0.000657227
0.000705276
0.000750688
0.00079473
0.000839192
0.000885475
0.000934509
0.000988918
0.00105468
0.00114562
0.00128563
0.00152951
0.00198208
0.00306283
0.00582668
0.0122733
0.0197717
0.0240737
0.0283868
0.0328504
0.037301
0.0413518
0.0446171
0.0467449
0.0475851
0.0471112
0.0453738
0.0424682
0.0385016
0.0335498
0.0275824
0.0202536
0.0114029
0.000142784
0.000308309
0.000418094
0.000507115
0.000584534
0.000653122
0.000713965
0.000767828
0.000815742
0.000859321
0.00090093
0.000943853
0.000990587
0.00104279
0.00110432
0.00118349
0.0012989
0.00148127
0.00179206
0.00233242
0.00350575
0.0063029
0.0125726
0.0203458
0.0257371
0.0310451
0.0364403
0.0416323
0.0462045
0.0497704
0.0519834
0.0527191
0.0519858
0.0498716
0.0465068
0.0420286
0.0365347
0.0299992
0.0220381
0.0124735
0.000182799
0.000389773
0.000526428
0.000635536
0.000728414
0.000808315
0.000876301
0.000933038
0.000979705
0.00101861
0.00105362
0.00109039
0.00113358
0.00118625
0.00125413
0.00134877
0.00149508
0.00173203
0.00212667
0.00276983
0.00403516
0.00683013
0.0128743
0.0210261
0.0277274
0.0342559
0.0407276
0.046729
0.0518224
0.0556455
0.0578762
0.0584294
0.0573573
0.05479
0.0508947
0.0458384
0.0397391
0.0325745
0.0239226
0.0136046
0.000241198
0.000508089
0.000683099
0.000820759
0.000935793
0.00103232
0.00111141
0.00117341
0.00121929
0.00125166
0.00127581
0.00130044
0.00133404
0.00138233
0.00145427
0.00156618
0.00175172
0.00206037
0.00256375
0.0033352
0.00470421
0.00747038
0.0132372
0.021915
0.0301668
0.0381478
0.0458208
0.0526693
0.0582537
0.0622631
0.0644236
0.0647052
0.0632123
0.06012
0.0556317
0.0499407
0.0431813
0.0353313
0.0259292
0.0148174
0.000323397
0.000673469
0.000900978
0.00107755
0.00122305
0.00134305
0.00143882
0.00151035
0.00155802
0.00158414
0.00159473
0.00160136
0.0016181
0.00165514
0.00172703
0.00185778
0.00209397
0.00249994
0.00315201
0.00409808
0.00560608
0.00833331
0.0137636
0.0231604
0.0332197
0.0428692
0.0518245
0.0595084
0.0655115
0.0696016
0.0715824
0.0714962
0.0695071
0.0658346
0.0607119
0.0543508
0.0468937
0.0383116
0.0281003
0.0161473
0.000436072
0.000898332
0.00119534
0.00142304
0.00160873
0.00176034
0.0018797
0.00196657
0.00202061
0.0020433
0.00204039
0.00202514
0.00201848
0.00203672
0.00210326
0.00225477
0.00255839
0.0031024
0.00397262
0.00518244
0.00691258
0.00962098
0.0146336
0.0249955
0.0371266
0.0485985
0.0588331
0.0672607
0.0735498
0.0775694
0.0792397
0.078694
0.0761583
0.0718877
0.0661312
0.0591034
0.0509403
0.0415952
0.0305136
0.0176508
0.000587528
0.00119828
0.00158476
0.00187738
0.00211411
0.00230639
0.00245727
0.0025666
0.00263343
0.00265814
0.00264529
0.00260796
0.00257466
0.0025688
0.00262578
0.00280218
0.0031983
0.00394766
0.00516375
0.00682004
0.00896654
0.0117433
0.0163469
0.0278558
0.0422766
0.0555391
0.066877
0.0758188
0.0821704
0.085917
0.0871434
0.0860866
0.083022
0.0782154
0.0719031
0.0642765
0.0554442
0.0453254
0.0333038
0.0194161
0.000788244
0.00159313
0.00209203
0.00246452
0.0027636
0.00300597
0.00319682
0.00333676
0.00342476
0.00346035
0.00344646
0.00339417
0.00333719
0.00330946
0.00335875
0.00356935
0.00408929
0.00514306
0.0069551
0.00945541
0.0125081
0.0155249
0.0192121
0.0323623
0.0492427
0.0638734
0.0758167
0.0848318
0.0909053
0.0941335
0.0948319
0.0933264
0.0898954
0.0847603
0.0780966
0.0700348
0.0606295
0.0497469
0.0366908
0.0215748
0.00105156
0.0021108
0.00274862
0.003217
0.00359003
0.00389195
0.00413151
0.00431132
0.00443156
0.00449239
0.00449665
0.0044544
0.00439173
0.00436228
0.0044241
0.00469416
0.0053642
0.00686474
0.00968208
0.0139104
0.0192951
0.0234038
0.0251684
0.0385951
0.0572191
0.0723556
0.0841795
0.0927806
0.0983143
0.101001
0.101393
0.0998292
0.0964983
0.0914979
0.0848828
0.0766835
0.0668756
0.0552549
0.0410204
0.0243157
0.00139481
0.00279083
0.00359784
0.00417842
0.00463609
0.00500571
0.00530144
0.00552958
0.00569369
0.00579753
0.00584789
0.00585824
0.00585604
0.00591761
0.00612007
0.00661678
0.00768238
0.00981415
0.0140597
0.0209737
0.0326469
0.0391049
0.0332357
0.0461631
0.0632777
0.0777394
0.0888349
0.0968308
0.102004
0.104771
0.105698
0.104993
0.10265
0.0985691
0.0926349
0.0847476
0.0747861
0.0624592
0.0468194
0.0279054
0.00180895
0.00362927
0.00463136
0.00533856
0.0058922
0.00634064
0.00670535
0.00699845
0.00722962
0.00741045
0.00755837
0.00770194
0.00788959
0.00821116
0.00879393
0.00985756
0.0117867
0.0152697
0.021502
0.0304618
0.0391805
0.0416731
0.0401978
0.051271
0.066051
0.0789562
0.0889348
0.0963333
0.10156
0.105176
0.107561
0.108672
0.108231
0.105879
0.101289
0.0942004
0.0843768
0.0714171
0.0541678
0.0323101
0.00226847
0.00457519
0.00579236
0.00664101
0.00730538
0.00784905
0.00830229
0.00868491
0.00901547
0.00931711
0.00962278
0.00998191
0.0104702
0.0111655
0.0122323
0.0139112
0.0165585
0.0206461
0.0264911
0.0334799
0.0399295
0.0430094
0.0446757
0.0541123
0.0663277
0.0772162
0.0858438
0.0926684
0.0982458
0.103168
0.107567
0.111109
0.113192
0.113158
0.110428
0.104555
0.0951584
0.0816946
0.0627359
0.0372865
0.00276329
0.00558806
0.00704001
0.00804583
0.00883532
0.00948814
0.0100439
0.0105308
0.0109768
0.0114165
0.0118965
0.0124802
0.013225
0.0142206
0.0156164
0.0175911
0.0203563
0.0241244
0.0289706
0.0346049
0.0401991
0.0441897
0.047565
0.0553032
0.064955
0.0736631
0.0808136
0.0870407
0.0930968
0.0995293
0.10624
0.112597
0.117661
0.120433
0.12004
0.115804
0.107157
0.0933626
0.0726259
0.0428783
0.00324973
0.00661574
0.00831132
0.0094805
0.0103984
0.0111602
0.0118147
0.0123978
0.0129452
0.0134996
0.0141168
0.0148343
0.0157216
0.0168767
0.0184033
0.0204109
0.0230137
0.0263265
0.0304345
0.0353294
0.0406812
0.0453131
0.0494075
0.0556061
0.0628635
0.0694142
0.0750441
0.0806021
0.087071
0.0949506
0.104
0.113333
0.121672
0.127651
0.130052
0.127906
0.120394
0.106507
0.0839722
0.0491516
0.00369704
0.00759263
0.00952216
0.0108453
0.0118794
0.0127343
0.0134666
0.0141196
0.014737
0.0153556
0.0160176
0.0167965
0.017764
0.0189919
0.0205503
0.022508
0.0249404
0.0279472
0.0316671
0.0362521
0.0415758
0.0467286
0.0510154
0.0558414
0.0609759
0.0655343
0.0697193
0.0745384
0.0811878
0.090208
0.101382
0.113596
0.125303
0.134777
0.1404
0.140826
0.134902
0.121242
0.0969472
0.0561969
0.00407858
0.00845728
0.0105915
0.0120425
0.0131657
0.0140846
0.0148612
0.0155414
0.0161691
0.0168034
0.0175044
0.0183351
0.0193578
0.020631
0.0222093
0.0241482
0.0265197
0.0294391
0.033094
0.0377311
0.0433179
0.0488289
0.0531108
0.0567991
0.0601478
0.0629729
0.0658671
0.070015
0.0766851
0.0864538
0.0991803
0.113869
0.128795
0.141895
0.151098
0.154576
0.150751
0.137711
0.11176
0.0641304
0.00438824
0.00916204
0.0114423
0.0129732
0.0141389
0.0150765
0.0158625
0.0165537
0.0172038
0.0178703
0.0186138
0.0194962
0.0205771
0.0219125
0.023557
0.0255723
0.0280462
0.0311185
0.0350097
0.0400028
0.046085
0.0520402
0.056364
0.0591965
0.0610572
0.0624927
0.064458
0.0680857
0.0747009
0.0849659
0.0988367
0.115424
0.133017
0.149415
0.162256
0.169225
0.168053
0.156089
0.128655
0.0731071
0.00462705
0.00958506
0.0119517
0.0135338
0.0147341
0.0156982
0.0165058
0.0172189
0.0178966
0.0186005
0.0193946
0.0203437
0.0215119
0.0229638
0.0247685
0.0270102
0.0298084
0.0333368
0.0378252
0.0435783
0.0504595
0.0570515
0.0615752
0.0637703
0.0645457
0.0651629
0.0666373
0.070035
0.0767071
0.0872859
0.101783
0.119526
0.139062
0.158271
0.174571
0.185124
0.186941
0.176567
0.147917
0.083359
0.00477987
0.00979155
0.0122083
0.0138213
0.0150418
0.0160205
0.0168433
0.0175774
0.0182871
0.0190387
0.0199018
0.0209503
0.0222631
0.0239285
0.0260509
0.028763
0.0322398
0.0366922
0.0424078
0.0495699
0.0577647
0.0652837
0.0701078
0.0718127
0.0721337
0.0725511
0.0740739
0.0776724
0.0846255
0.0952947
0.109743
0.127677
0.148164
0.169424
0.1888
0.202938
0.207993
0.199437
0.169567
0.0952325
0.00487137
0.00985028
0.0122699
0.0138822
0.0151016
0.0160826
0.0169159
0.0176733
0.0184237
0.0192397
0.0202026
0.0214053
0.0229588
0.0250014
0.0277101
0.0313181
0.0361196
0.0424423
0.0504982
0.0602892
0.0706889
0.0794362
0.0843571
0.0858856
0.0863192
0.0870892
0.0891304
0.0932601
0.100479
0.110725
0.124245
0.141265
0.161558
0.183906
0.205768
0.223329
0.231787
0.225311
0.194211
0.108713
0.00490366
0.00978824
0.0121733
0.0137587
0.0149591
0.0159328
0.0167748
0.0175608
0.0183654
0.0192724
0.0203854
0.0218354
0.0237967
0.0265047
0.0302797
0.0355446
0.0428106
0.0526081
0.0648638
0.0792681
0.0930201
0.102934
0.107655
0.109296
0.110072
0.11134
0.113902
0.118428
0.125273
0.134244
0.145892
0.160975
0.180003
0.202474
0.226162
0.246909
0.258888
0.254725
0.2223
0.124026
0.00488739
0.0096286
0.0119487
0.0134864
0.0146556
0.0156184
0.0164731
0.0173003
0.0181844
0.0192321
0.0205916
0.0224686
0.025161
0.0290891
0.0348424
0.0431202
0.054652
0.0702285
0.0887414
0.109452
0.126788
0.137347
0.142113
0.143756
0.144553
0.145811
0.148239
0.152479
0.157832
0.164685
0.173792
0.186296
0.203352
0.225236
0.25024
0.274036
0.289751
0.288214
0.25433
0.141426
0.00483199
0.00938846
0.011618
0.0130937
0.0142285
0.0151861
0.0160683
0.0169659
0.0179891
0.0192947
0.0211224
0.0238391
0.0280002
0.0343186
0.0438667
0.0574099
0.0754088
0.0987891
0.124135
0.149694
0.169573
0.180877
0.185656
0.186935
0.187124
0.187554
0.188933
0.191641
0.194861
0.199212
0.205612
0.215445
0.230359
0.251404
0.27757
0.304583
0.324558
0.326246
0.290855
0.161244
0.00474613
0.00907678
0.0111937
0.0126037
0.013714
0.0146878
0.0156368
0.0166866
0.0180231
0.0199336
0.0228671
0.0275768
0.0351092
0.0463507
0.0628593
0.0843356
0.109894
0.138851
0.168606
0.19646
0.217028
0.228283
0.232676
0.233211
0.232307
0.231343
0.231089
0.231512
0.232342
0.234255
0.238229
0.245762
0.258854
0.279273
0.306873
0.337712
0.363018
0.369118
0.332504
0.183943
0.00464318
0.00870548
0.010692
0.0120487
0.0131684
0.0142215
0.015369
0.0168698
0.0191773
0.0230056
0.0291815
0.0392378
0.0546169
0.0747047
0.0994893
0.127723
0.157959
0.188846
0.218614
0.244876
0.26349
0.273362
0.276794
0.276352
0.274218
0.271748
0.269705
0.267751
0.266423
0.266329
0.268441
0.274301
0.286153
0.306427
0.335995
0.371653
0.404064
0.416774
0.380051
0.210236
0.00453325
0.00828128
0.0101396
0.011505
0.0127625
0.0141951
0.0162305
0.0197298
0.0261017
0.0371016
0.0527915
0.0738063
0.099368
0.127657
0.157287
0.187099
0.215933
0.243056
0.267537
0.288264
0.302762
0.310387
0.312595
0.31126
0.308133
0.304408
0.30057
0.296945
0.294088
0.292632
0.293546
0.298391
0.309572
0.330098
0.362018
0.403449
0.445301
0.468306
0.434451
0.241467
0.00446876
0.00791202
0.00980542
0.0115923
0.0140427
0.0186125
0.0269807
0.0417993
0.0619499
0.0873364
0.116301
0.146624
0.176325
0.204078
0.229435
0.252191
0.272306
0.290193
0.305633
0.319128
0.329188
0.334803
0.336205
0.334504
0.330937
0.326445
0.321624
0.317116
0.313465
0.311329
0.311673
0.316041
0.326895
0.347656
0.381536
0.428632
0.481743
0.520345
0.497191
0.281423
0.00458034
0.00877987
0.0131129
0.0216343
0.0391608
0.0663922
0.0973289
0.131123
0.165207
0.197198
0.225066
0.247482
0.265108
0.279195
0.290907
0.300521
0.309073
0.317151
0.325144
0.333183
0.340031
0.344311
0.345695
0.344421
0.341187
0.336794
0.331994
0.327444
0.323735
0.321559
0.321869
0.326141
0.336741
0.357187
0.391489
0.441743
0.504746
0.564856
0.575445
0.349475
0.00919881
0.0255424
0.0580522
0.112766
0.188416
0.239271
0.271803
0.291136
0.301369
0.306134
0.307156
0.306989
0.306994
0.307663
0.309019
0.311126
0.313946
0.317537
0.322149
0.328106
0.334211
0.338795
0.341162
0.341167
0.339175
0.335847
0.331921
0.328082
0.324974
0.323314
0.324031
0.328476
0.338782
0.358226
0.391007
0.441004
0.509378
0.592672
0.66362
0.437603
0.096734
0.0934088
0.0905133
0.087962
0.0856964
0.0836724
0.0818554
0.0802177
0.0787365
0.0773924
0.0761694
0.0750534
0.0740326
0.0730966
0.0722365
0.0714445
0.0707136
0.0700378
0.0694119
0.0688311
0.0682912
0.0677885
0.0673196
0.0668815
0.0664714
0.0660868
0.065725
0.0653836
0.0650582
0.064722
0.0975192
0.0941051
0.0906329
0.0873
0.0841874
0.0813222
0.0787053
0.0763248
0.0741636
0.0722024
0.0704221
0.0688045
0.0673329
0.065992
0.0647684
0.0636499
0.0626256
0.0616861
0.0608228
0.0600284
0.0592962
0.0586203
0.0579958
0.0574181
0.0568835
0.0563888
0.0559315
0.0555087
0.0551189
0.0547463
0.0985249
0.0965079
0.0943329
0.0921223
0.0899477
0.0878507
0.0858541
0.083969
0.082199
0.0805433
0.078998
0.077558
0.0762171
0.0749689
0.0738069
0.0727249
0.0717168
0.070777
0.0699003
0.0690818
0.0683172
0.0676022
0.0669332
0.0663067
0.0657199
0.0651688
0.0646509
0.0641632
0.0637023
0.0632588
0.0988774
0.097448
0.0959087
0.0943214
0.092729
0.0911607
0.0896358
0.0881663
0.0867596
0.0854193
0.0841468
0.0829415
0.0818019
0.0807258
0.0797104
0.0787529
0.0778503
0.0769994
0.0761973
0.075441
0.0747278
0.0740549
0.0734198
0.0728202
0.0722537
0.0717183
0.0712118
0.0707321
0.0702773
0.069844
0.0990238
0.0978673
0.0966509
0.0954031
0.0941477
0.0929029
0.0916816
0.0904932
0.089344
0.088238
0.0871774
0.0861632
0.0851955
0.0842735
0.0833963
0.0825624
0.0817703
0.0810182
0.0803044
0.079627
0.0789842
0.0783742
0.0777953
0.0772458
0.076724
0.0762285
0.0757577
0.07531
0.0748838
0.0744766
0.0990872
0.0980668
0.0970263
0.0959748
0.0949232
0.0938818
0.0928584
0.0918592
0.0908888
0.0899501
0.0890453
0.0881754
0.0873409
0.0865417
0.0857773
0.0850471
0.08435
0.0836851
0.0830511
0.0824469
0.0818712
0.0813227
0.0808003
0.0803026
0.0798285
0.0793767
0.0789462
0.0785359
0.0781443
0.0777694
0.0991145
0.0981617
0.0972183
0.0962827
0.0953579
0.0944476
0.0935559
0.0926861
0.0918408
0.0910221
0.0902312
0.0894689
0.0887356
0.0880313
0.0873557
0.0867084
0.0860886
0.0854957
0.0849288
0.0843869
0.0838693
0.0833748
0.0829026
0.0824518
0.0820213
0.0816102
0.0812177
0.0808428
0.0804845
0.0801407
0.0991258
0.0982055
0.097314
0.0964457
0.0955988
0.0947729
0.0939689
0.0931878
0.0924304
0.0916976
0.0909899
0.0903076
0.0896508
0.0890192
0.0884126
0.0878304
0.0872723
0.0867374
0.0862251
0.0857347
0.0852654
0.0848164
0.084387
0.0839763
0.0835836
0.0832082
0.0828492
0.0825059
0.0821774
0.0818616
0.0991303
0.0982248
0.0973597
0.0965287
0.0957278
0.0949546
0.0942076
0.093486
0.0927894
0.0921174
0.0914699
0.0908463
0.0902466
0.08967
0.0891163
0.0885849
0.088075
0.0875862
0.0871177
0.0866689
0.0862391
0.0858275
0.0854336
0.0850565
0.0846956
0.0843503
0.0840199
0.0837037
0.0834008
0.0831094
0.099132
0.098233
0.0973804
0.0965688
0.0957937
0.0950516
0.09434
0.0936568
0.0930007
0.0923705
0.0917651
0.0911837
0.0906255
0.0900898
0.0895759
0.0890829
0.0886103
0.0881574
0.0877233
0.0873075
0.0869092
0.0865278
0.0861627
0.085813
0.0854784
0.085158
0.0848514
0.0845579
0.0842766
0.0840057
0.0991326
0.0982362
0.0973894
0.0965872
0.0958256
0.0951008
0.0944098
0.0937501
0.0931197
0.0925166
0.0919396
0.0913871
0.0908581
0.0903516
0.0898666
0.0894021
0.0889573
0.0885314
0.0881237
0.0877333
0.0873596
0.0870019
0.0866595
0.0863318
0.0860182
0.085718
0.0854307
0.0851557
0.0848921
0.0846382
0.0991327
0.0982375
0.097393
0.0965952
0.0958402
0.0951244
0.0944447
0.0937984
0.0931831
0.0925969
0.0920377
0.0915042
0.0909947
0.090508
0.090043
0.0895986
0.0891737
0.0887675
0.0883791
0.0880077
0.0876525
0.0873127
0.0869878
0.0866769
0.0863796
0.0860952
0.0858231
0.0855627
0.0853132
0.085073
0.0991328
0.0982379
0.0973944
0.0965985
0.0958465
0.095135
0.0944611
0.0938219
0.0932151
0.0926385
0.0920901
0.091568
0.0910708
0.0905969
0.090145
0.089714
0.0893026
0.08891
0.0885352
0.0881771
0.0878352
0.0875084
0.0871963
0.0868979
0.0866127
0.0863402
0.0860795
0.0858303
0.0855916
0.0853618
0.0991328
0.098238
0.0973949
0.0965997
0.095849
0.0951395
0.0944683
0.0938327
0.0932303
0.0926589
0.0921164
0.0916009
0.0911108
0.0906446
0.0902008
0.0897782
0.0893756
0.0889918
0.0886259
0.0882768
0.0879438
0.0876261
0.0873227
0.0870331
0.0867566
0.0864925
0.0862401
0.0859989
0.0857681
0.0855461
0.0991328
0.0982381
0.0973951
0.0966002
0.0958499
0.0951412
0.0944713
0.0938373
0.0932371
0.0926682
0.0921287
0.0916168
0.0911307
0.0906688
0.0902297
0.089812
0.0894145
0.0890362
0.0886758
0.0883324
0.0880052
0.0876932
0.0873956
0.0871118
0.086841
0.0865826
0.0863359
0.0861003
0.0858749
0.0856582
0.0991328
0.098238
0.0973951
0.0966003
0.0958502
0.0951419
0.0944724
0.0938391
0.0932398
0.0926722
0.0921342
0.091624
0.0911399
0.0906803
0.0902437
0.0898287
0.0894342
0.0890588
0.0887017
0.0883616
0.0880378
0.0877294
0.0874354
0.0871552
0.086888
0.0866332
0.0863901
0.0861581
0.0859363
0.0857231
0.0991327
0.098238
0.0973951
0.0966003
0.0958503
0.095142
0.0944727
0.0938398
0.0932408
0.0926737
0.0921364
0.091627
0.0911439
0.0906853
0.09025
0.0898364
0.0894434
0.0890697
0.0887143
0.0883761
0.0880542
0.0877477
0.0874558
0.0871777
0.0869126
0.08666
0.0864191
0.0861892
0.0859696
0.0857586
0.0991327
0.098238
0.0973951
0.0966003
0.0958503
0.095142
0.0944728
0.0938399
0.0932411
0.0926742
0.0921372
0.0916281
0.0911454
0.0906874
0.0902526
0.0898397
0.0894474
0.0890745
0.08872
0.0883828
0.0880619
0.0877564
0.0874656
0.0871887
0.0869248
0.0866733
0.0864336
0.086205
0.0859866
0.0857769
0.0991327
0.098238
0.0973951
0.0966003
0.0958503
0.095142
0.0944728
0.09384
0.0932412
0.0926743
0.0921374
0.0916285
0.0911459
0.0906881
0.0902536
0.089841
0.089449
0.0890765
0.0887224
0.0883856
0.0880652
0.0877603
0.08747
0.0871936
0.0869304
0.0866795
0.0864405
0.0862125
0.0859948
0.0857858
0.0991327
0.098238
0.0973951
0.0966003
0.0958503
0.095142
0.0944728
0.0938399
0.0932412
0.0926743
0.0921374
0.0916285
0.091146
0.0906883
0.0902539
0.0898414
0.0894496
0.0890772
0.0887233
0.0883867
0.0880665
0.0877618
0.0874718
0.0871957
0.0869327
0.0866822
0.0864435
0.0862158
0.0859984
0.0857898
0.0991327
0.0982381
0.0973951
0.0966003
0.0958503
0.095142
0.0944727
0.0938399
0.0932412
0.0926743
0.0921374
0.0916285
0.091146
0.0906883
0.0902539
0.0898415
0.0894497
0.0890774
0.0887235
0.088387
0.088067
0.0877624
0.0874725
0.0871965
0.0869336
0.0866832
0.0864446
0.0862171
0.0859999
0.0857914
0.0991327
0.0982381
0.0973951
0.0966003
0.0958503
0.095142
0.0944728
0.0938399
0.0932411
0.0926743
0.0921373
0.0916285
0.091146
0.0906883
0.0902539
0.0898414
0.0894497
0.0890774
0.0887236
0.0883871
0.0880671
0.0877625
0.0874727
0.0871967
0.0869339
0.0866836
0.0864451
0.0862176
0.0860005
0.0857921
0.0991327
0.0982381
0.0973952
0.0966003
0.0958503
0.0951421
0.0944728
0.0938399
0.0932411
0.0926743
0.0921373
0.0916285
0.091146
0.0906883
0.0902539
0.0898414
0.0894497
0.0890774
0.0887236
0.0883871
0.0880671
0.0877626
0.0874727
0.0871968
0.086934
0.0866837
0.0864452
0.0862178
0.0860007
0.0857923
0.0991328
0.0982381
0.0973952
0.0966004
0.0958504
0.0951421
0.0944728
0.09384
0.0932412
0.0926743
0.0921374
0.0916285
0.091146
0.0906883
0.0902539
0.0898414
0.0894497
0.0890774
0.0887236
0.0883871
0.0880671
0.0877626
0.0874727
0.0871968
0.086934
0.0866837
0.0864452
0.0862178
0.0860007
0.0857923
0.0991328
0.0982381
0.0973952
0.0966004
0.0958504
0.0951421
0.0944729
0.09384
0.0932412
0.0926744
0.0921374
0.0916285
0.091146
0.0906883
0.0902539
0.0898414
0.0894497
0.0890774
0.0887236
0.0883871
0.0880671
0.0877626
0.0874728
0.0871968
0.0869341
0.0866838
0.0864453
0.0862179
0.0860008
0.0857924
0.0991328
0.0982382
0.0973953
0.0966005
0.0958505
0.0951422
0.0944729
0.0938401
0.0932413
0.0926744
0.0921375
0.0916286
0.0911461
0.0906884
0.0902539
0.0898415
0.0894497
0.0890775
0.0887237
0.0883872
0.0880672
0.0877627
0.0874728
0.0871969
0.0869341
0.0866838
0.0864453
0.0862179
0.0860008
0.0857925
0.0991328
0.0982382
0.0973953
0.0966005
0.0958505
0.0951423
0.094473
0.0938401
0.0932414
0.0926745
0.0921375
0.0916287
0.0911462
0.0906884
0.090254
0.0898416
0.0894498
0.0890776
0.0887237
0.0883873
0.0880672
0.0877627
0.0874729
0.087197
0.0869342
0.0866839
0.0864454
0.086218
0.0860009
0.0857926
0.0991328
0.0982382
0.0973953
0.0966006
0.0958506
0.0951423
0.0944731
0.0938402
0.0932414
0.0926746
0.0921376
0.0916288
0.0911463
0.0906885
0.0902541
0.0898417
0.0894499
0.0890777
0.0887239
0.0883874
0.0880674
0.0877629
0.087473
0.0871971
0.0869344
0.0866841
0.0864456
0.0862182
0.0860011
0.0857927
0.0991328
0.0982382
0.0973954
0.0966006
0.0958507
0.0951424
0.0944732
0.0938403
0.0932415
0.0926747
0.0921377
0.0916289
0.0911464
0.0906887
0.0902543
0.0898418
0.0894501
0.0890778
0.088724
0.0883875
0.0880675
0.087763
0.0874732
0.0871973
0.0869345
0.0866842
0.0864457
0.0862184
0.0860013
0.0857929
0.0991328
0.0982383
0.0973954
0.0966007
0.0958507
0.0951425
0.0944733
0.0938404
0.0932417
0.0926748
0.0921379
0.091629
0.0911465
0.0906888
0.0902544
0.089842
0.0894502
0.089078
0.0887242
0.0883877
0.0880677
0.0877632
0.0874734
0.0871975
0.0869347
0.0866844
0.0864459
0.0862186
0.0860015
0.0857931
0.0991328
0.0982383
0.0973955
0.0966008
0.0958508
0.0951426
0.0944734
0.0938405
0.0932418
0.0926749
0.092138
0.0916291
0.0911467
0.0906889
0.0902546
0.0898421
0.0894504
0.0890782
0.0887243
0.0883879
0.0880679
0.0877634
0.0874736
0.0871977
0.0869349
0.0866846
0.0864462
0.0862188
0.0860017
0.0857933
0.0991329
0.0982383
0.0973955
0.0966008
0.0958509
0.0951427
0.0944735
0.0938407
0.0932419
0.0926751
0.0921382
0.0916293
0.0911468
0.0906891
0.0902547
0.0898423
0.0894506
0.0890784
0.0887245
0.0883881
0.0880681
0.0877636
0.0874738
0.0871979
0.0869352
0.0866849
0.0864464
0.086219
0.0860019
0.0857936
0.0991329
0.0982384
0.0973956
0.0966009
0.095851
0.0951428
0.0944736
0.0938408
0.0932421
0.0926752
0.0921383
0.0916295
0.091147
0.0906893
0.0902549
0.0898425
0.0894508
0.0890786
0.0887248
0.0883883
0.0880683
0.0877638
0.0874741
0.0871982
0.0869354
0.0866851
0.0864467
0.0862193
0.0860022
0.0857939
0.0991329
0.0982384
0.0973957
0.096601
0.0958511
0.0951429
0.0944737
0.0938409
0.0932422
0.0926754
0.0921385
0.0916297
0.0911472
0.0906895
0.0902551
0.0898427
0.089451
0.0890788
0.088725
0.0883886
0.0880686
0.0877641
0.0874743
0.0871984
0.0869357
0.0866854
0.086447
0.0862196
0.0860025
0.0857942
0.0991329
0.0982385
0.0973957
0.0966011
0.0958512
0.095143
0.0944738
0.0938411
0.0932424
0.0926756
0.0921387
0.0916298
0.0911474
0.0906897
0.0902554
0.089843
0.0894513
0.0890791
0.0887253
0.0883888
0.0880689
0.0877644
0.0874746
0.0871987
0.086936
0.0866857
0.0864473
0.0862199
0.0860029
0.0857945
0.0991329
0.0982385
0.0973958
0.0966012
0.0958513
0.0951432
0.094474
0.0938412
0.0932425
0.0926757
0.0921389
0.0916301
0.0911476
0.0906899
0.0902556
0.0898432
0.0894515
0.0890793
0.0887255
0.0883891
0.0880691
0.0877647
0.0874749
0.087199
0.0869363
0.0866861
0.0864476
0.0862203
0.0860032
0.0857949
0.099133
0.0982386
0.0973959
0.0966013
0.0958514
0.0951433
0.0944741
0.0938414
0.0932427
0.0926759
0.0921391
0.0916303
0.0911478
0.0906902
0.0902558
0.0898435
0.0894518
0.0890796
0.0887258
0.0883894
0.0880694
0.087765
0.0874752
0.0871994
0.0869367
0.0866864
0.086448
0.0862206
0.0860036
0.0857953
0.099133
0.0982386
0.0973959
0.0966013
0.0958515
0.0951434
0.0944743
0.0938415
0.0932429
0.0926761
0.0921393
0.0916305
0.0911481
0.0906904
0.0902561
0.0898437
0.0894521
0.0890799
0.0887261
0.0883897
0.0880698
0.0877653
0.0874756
0.0871997
0.086937
0.0866868
0.0864483
0.086221
0.086004
0.0857957
0.099133
0.0982387
0.097396
0.0966014
0.0958516
0.0951435
0.0944744
0.0938417
0.0932431
0.0926763
0.0921395
0.0916307
0.0911483
0.0906907
0.0902564
0.089844
0.0894523
0.0890802
0.0887264
0.08839
0.0880701
0.0877657
0.0874759
0.0872001
0.0869374
0.0866872
0.0864487
0.0862214
0.0860044
0.0857961
0.099133
0.0982387
0.0973961
0.0966015
0.0958517
0.0951437
0.0944746
0.0938419
0.0932433
0.0926765
0.0921397
0.091631
0.0911486
0.0906909
0.0902566
0.0898443
0.0894526
0.0890805
0.0887267
0.0883904
0.0880704
0.087766
0.0874763
0.0872004
0.0869378
0.0866875
0.0864491
0.0862218
0.0860048
0.0857965
0.0991331
0.0982388
0.0973962
0.0966016
0.0958519
0.0951438
0.0944748
0.0938421
0.0932435
0.0926768
0.0921399
0.0916312
0.0911488
0.0906912
0.0902569
0.0898446
0.089453
0.0890808
0.0887271
0.0883907
0.0880708
0.0877664
0.0874767
0.0872008
0.0869382
0.086688
0.0864495
0.0862222
0.0860052
0.0857969
0.0991331
0.0982388
0.0973963
0.0966018
0.095852
0.095144
0.0944749
0.0938423
0.0932437
0.092677
0.0921402
0.0916315
0.0911491
0.0906915
0.0902572
0.0898449
0.0894533
0.0890812
0.0887274
0.0883911
0.0880712
0.0877668
0.0874771
0.0872012
0.0869386
0.0866884
0.08645
0.0862227
0.0860057
0.0857974
0.0991331
0.0982389
0.0973963
0.0966019
0.0958521
0.0951442
0.0944751
0.0938425
0.0932439
0.0926772
0.0921404
0.0916317
0.0911494
0.0906918
0.0902576
0.0898453
0.0894536
0.0890815
0.0887278
0.0883915
0.0880716
0.0877672
0.0874775
0.0872017
0.086939
0.0866888
0.0864504
0.0862231
0.0860061
0.0857978