/*--------------------------------*- C++ -*----------------------------------*\
| =========                 |                                                 |
| \\      /  F ield         | OpenFOAM: The Open Source CFD Toolbox           |
|  \\    /   O peration     | Version:  2.2.0                                 |
|   \\  /    A nd           | Web:      www.OpenFOAM.org                      |
|    \\/     M anipulation  |                                                 |
\*---------------------------------------------------------------------------*/
FoamFile
{
    version     2.0;
    format      ascii;
    class       volScalarField;
    location    "2000";
    object      mut;
}
// * * * * * * * * * * * * * * * * * * * * * * * * * * * * * * * * * * * * * //

dimensions      [1 -1 -1 0 0 0 0];

internalField   nonuniform List<scalar> 
7600
(
3.35168e-05
5.12619e-05
6.48909e-05
7.53357e-05
8.40314e-05
9.12589e-05
9.75055e-05
0.000102922
0.000107597
0.000111586
0.000114923
0.000117616
0.000120011
0.000121991
0.000123744
0.000125058
0.000127237
0.000128412
0.000130029
0.000131348
0.000144807
0.000199305
0.000470913
0.000631522
0.000712732
0.000783324
0.000833433
0.000872995
0.000904228
0.000927744
0.000939563
0.000939738
0.000927929
0.000903543
0.000865678
0.000813001
0.000743491
0.000654373
0.000540326
0.000315486
4.9637e-05
0.000350348
0.000564386
0.000713549
0.000829528
0.000925141
0.00100541
0.00107348
0.00113135
0.00118053
0.00122223
0.00125776
0.00128443
0.00130368
0.00132493
0.00134855
0.00139151
0.00141287
0.00142508
0.0013853
0.00138248
0.00153541
0.00194348
0.00327231
0.00371132
0.00451923
0.00521928
0.00590163
0.00646074
0.0068629
0.00713118
0.0072391
0.00716088
0.00687268
0.00635353
0.00558742
0.00456812
0.00330832
0.00186146
0.000498966
6.14141e-05
0.000547051
0.000986734
0.00133226
0.00161623
0.00185615
0.00206147
0.00223798
0.00238953
0.00251894
0.00262845
0.00272004
0.00279224
0.00284729
0.00289812
0.00294949
0.00302057
0.00304085
0.00299527
0.00275543
0.00247084
0.00258815
0.0036996
0.00643984
0.0076355
0.00922536
0.0105098
0.0116092
0.0124082
0.0128856
0.0130375
0.0128369
0.0122702
0.0113381
0.0100565
0.00845888
0.00659995
0.0045614
0.00245903
0.000605385
7.01636e-05
0.000659767
0.00127517
0.00179763
0.00224649
0.0026373
0.0029799
0.00328068
0.00354396
0.00377277
0.00396938
0.00413559
0.00427147
0.00437888
0.00446954
0.00454957
0.00462857
0.00461292
0.00443701
0.00390291
0.00331981
0.00359212
0.00549269
0.00948325
0.0114354
0.0135275
0.0150868
0.0162861
0.0170667
0.0174228
0.0173373
0.016798
0.015812
0.0144032
0.0126113
0.0104909
0.0081111
0.00555937
0.00295151
0.000688116
7.73877e-05
0.000736353
0.00148023
0.00214637
0.00273969
0.00327096
0.00374805
0.00417637
0.00455949
0.00489966
0.00519813
0.00545547
0.00567152
0.00584616
0.00598679
0.00609557
0.00616504
0.00607947
0.00572075
0.00487204
0.0040919
0.00464563
0.00726261
0.0123197
0.014928
0.0173128
0.0189702
0.0201549
0.0208651
0.0210993
0.0208284
0.020046
0.0187687
0.0170295
0.0148751
0.0123615
0.00955385
0.00653214
0.00341976
0.000759327
8.33433e-05
0.000794546
0.00163117
0.00240742
0.00311892
0.00377218
0.00437268
0.00492421
0.00542893
0.0058875
0.00629923
0.00666226
0.00697389
0.00722998
0.00743071
0.00756868
0.00761456
0.00743139
0.00686375
0.00573776
0.00488409
0.00576668
0.00896062
0.0149406
0.0181088
0.020678
0.0223785
0.0235486
0.0242218
0.0243853
0.0239935
0.0230392
0.0215424
0.0195397
0.0170784
0.0142116
0.0109967
0.00750617
0.00387775
0.000823843
8.84484e-05
0.000838512
0.00174066
0.00259648
0.00339821
0.00415065
0.00485806
0.00552301
0.00614617
0.00672626
0.00725987
0.00774146
0.00816327
0.00851506
0.00878665
0.00895601
0.00896932
0.00867239
0.00790026
0.00657285
0.00574728
0.00695054
0.0105597
0.0173539
0.0210239
0.0237493
0.0255118
0.0267129
0.0273979
0.0275333
0.0270576
0.0259625
0.0242715
0.0220253
0.0192723
0.0160627
0.0124464
0.00848659
0.00433388
0.000884184
9.29714e-05
0.000870496
0.00181385
0.00272035
0.00358378
0.00441021
0.00520446
0.00596896
0.00670348
0.00740485
0.00806651
0.00867809
0.00922418
0.00968663
0.0100415
0.0102478
0.0102271
0.00981648
0.00887521
0.00744066
0.00670736
0.00818494
0.0120795
0.0195797
0.0237361
0.0266449
0.0285252
0.0298117
0.0305465
0.030675
0.0301254
0.0288919
0.0270053
0.0245128
0.0214665
0.0179149
0.0139004
0.00947402
0.00479272
0.000941787
9.72868e-05
0.000891901
0.00185277
0.00278184
0.00367866
0.00455297
0.00541189
0.00625908
0.00709447
0.00791361
0.00870681
0.00945796
0.0101425
0.0107318
0.0111852
0.0114393
0.0113931
0.0108885
0.00984049
0.00839474
0.0077807
0.00946154
0.0135314
0.0216467
0.0263137
0.0294694
0.0315385
0.0329595
0.0337663
0.0338898
0.0332564
0.0318685
0.0297686
0.0270142
0.0236635
0.0197652
0.015354
0.0104658
0.00525506
0.000997524
0.000102014
0.000904875
0.00186189
0.00278853
0.00369302
0.00459023
0.00549086
0.00640121
0.00732291
0.00825176
0.00917587
0.0100731
0.0109095
0.0116434
0.0122142
0.0125337
0.0124828
0.0119239
0.0108513
0.00948161
0.00898436
0.0107802
0.0149264
0.0235901
0.0288271
0.0323165
0.0346498
0.0362459
0.0371319
0.0372363
0.0364936
0.0349214
0.0325785
0.0295367
0.0258631
0.0216085
0.0168001
0.0114555
0.00571864
0.00105198
0.000108146
0.000916313
0.0018581
0.00276773
0.00366246
0.00456236
0.00548237
0.00643298
0.0074199
0.00844209
0.00948828
0.0105318
0.0115299
0.0124257
0.0131362
0.0135462
0.0135236
0.0129676
0.0119629
0.0107449
0.0103436
0.0121528
0.0162789
0.0254461
0.0313471
0.0352722
0.0379433
0.0397451
0.0407035
0.0407592
0.0398678
0.0380691
0.0354435
0.0320807
0.0280598
0.0234352
0.0182273
0.0124335
0.00617895
0.00110558
0.000116956
0.000940563
0.00187745
0.00277655
0.00366123
0.00455516
0.0054772
0.00644313
0.00746562
0.00855151
0.00969589
0.0108726
0.0120323
0.0131029
0.013976
0.0145071
0.0145551
0.0140705
0.0132277
0.012229
0.0118985
0.0136083
0.0176126
0.027272
0.0339456
0.0384157
0.0414908
0.0435162
0.0445244
0.0444867
0.0433939
0.0413159
0.0383599
0.0346369
0.0302403
0.0252298
0.01962
0.0133867
0.00662981
0.00115873
0.000129599
0.0009951
0.00196311
0.00288406
0.00378256
0.00468281
0.00560521
0.00656957
0.00759646
0.00870496
0.0099048
0.0111805
0.0124835
0.0137289
0.0147817
0.0154641
0.0156281
0.0152848
0.0146924
0.0139808
0.0137098
0.0152014
0.0189659
0.0291375
0.0366946
0.0418167
0.0453477
0.0475969
0.0486157
0.0484247
0.0470663
0.0446483
0.041309
0.0371837
0.0323818
0.0269701
0.0209577
0.0142993
0.00706385
0.00121187
0.000146738
0.00109186
0.00214359
0.0031375
0.00409534
0.0050387
0.00598574
0.00695596
0.00797394
0.00907016
0.0102744
0.011595
0.0129981
0.0143959
0.0156293
0.0164834
0.0168009
0.0166593
0.0163947
0.0160468
0.0158621
0.017024
0.020399
0.0311248
0.0396663
0.0455331
0.049548
0.0519981
0.0529703
0.0525534
0.0508563
0.0480326
0.0442555
0.0396864
0.0344522
0.0286274
0.0222166
0.0151537
0.00747331
0.00126558
0.000168595
0.00123535
0.00242915
0.00355511
0.00462969
0.00567021
0.00668983
0.00770307
0.00873186
0.00981057
0.0109852
0.0122947
0.0137363
0.0152368
0.0166248
0.0176479
0.0181356
0.0182349
0.0183586
0.018465
0.018458
0.01922
0.0220076
0.0333338
0.0429343
0.0496085
0.0541012
0.0567009
0.0575514
0.0568252
0.0547108
0.0514143
0.0471472
0.0420981
0.0364116
0.0301693
0.0233719
0.0159331
0.00785149
0.00132074
0.000195214
0.00142723
0.00282386
0.00414456
0.00539879
0.00659912
0.00775271
0.00886662
0.00995503
0.0110475
0.0121952
0.0134613
0.0148818
0.0164156
0.0178996
0.019054
0.0196951
0.020044
0.0205948
0.0212527
0.0215946
0.0219936
0.0239517
0.0358932
0.0465801
0.0540745
0.0589931
0.0616562
0.0622905
0.0611627
0.0585503
0.0547173
0.0499157
0.0443616
0.0382153
0.0315639
0.0244026
0.0166257
0.00819497
0.00137868
0.000226651
0.00166975
0.00333449
0.00491803
0.00642065
0.00784977
0.00920633
0.0104893
0.0117027
0.0128659
0.0140239
0.0152497
0.0166122
0.0181068
0.0195994
0.0208057
0.0215432
0.0221185
0.0231136
0.0244075
0.0253212
0.0255873
0.0264958
0.0389763
0.0507065
0.0589566
0.0641851
0.0667819
0.0670836
0.0654543
0.0622647
0.0578411
0.0524767
0.0464129
0.0398212
0.0327882
0.0253002
0.0172315
0.00850724
0.00144137
0.000263036
0.00196837
0.00397501
0.00589887
0.00772773
0.00946299
0.0110991
0.0126268
0.0140395
0.0153435
0.0165703
0.0177872
0.0190808
0.020472
0.0218648
0.0230046
0.0237475
0.0245112
0.0259704
0.0279687
0.0296348
0.0301825
0.030166
0.0428527
0.0554672
0.0642731
0.0695971
0.0719387
0.071764
0.0695292
0.0656956
0.0606519
0.0547303
0.0481894
0.0412009
0.0338413
0.0260805
0.0177711
0.00880326
0.00151166
0.000304618
0.00233229
0.00476832
0.00712413
0.00937016
0.0115001
0.0135012
0.0153562
0.0170481
0.0185693
0.0199339
0.0211889
0.0224138
0.0236398
0.0248039
0.0257297
0.0263741
0.0273041
0.0293408
0.0321893
0.0347094
0.0358293
0.035132
0.0477673
0.0610249
0.0699844
0.0750487
0.0768778
0.0760641
0.0731336
0.0686254
0.0629864
0.0565757
0.0496504
0.0423634
0.0347648
0.0267993
0.0182958
0.00911328
0.00159339
0.000351785
0.00278066
0.00575588
0.00865571
0.0114267
0.014052
0.0165108
0.0187773
0.0208258
0.0226369
0.0242066
0.0255524
0.0266978
0.0276769
0.028459
0.0290149
0.0294766
0.0306794
0.0335669
0.0377407
0.041555
0.0430319
0.0422948
0.0535903
0.0667995
0.0753642
0.0797972
0.0809112
0.0793845
0.0757868
0.0707078
0.0646345
0.0579247
0.050804
0.0433809
0.035664
0.0275665
0.0188962
0.00948754
0.00169148
0.000405104
0.00334291
0.00699573
0.0105705
0.0139809
0.0171945
0.0201795
0.0229012
0.0253263
0.0274272
0.0291882
0.0306041
0.0316612
0.0323614
0.0327624
0.0330472
0.0336405
0.0353247
0.0392558
0.0450941
0.0521655
0.0551557
0.0508282
0.0602478
0.0715039
0.0790263
0.0826348
0.0830558
0.0809651
0.0769654
0.07165
0.0654975
0.0588239
0.051791
0.0444425
0.0367385
0.0285642
0.0197135
0.0100044
0.00181193
0.000461298
0.00402065
0.00847594
0.0128272
0.0169474
0.0207842
0.0242923
0.0274286
0.0301551
0.0324441
0.0342825
0.0356722
0.0366205
0.037163
0.0375347
0.0381147
0.039463
0.0422717
0.0471069
0.0538239
0.0596193
0.0601142
0.0582655
0.0654395
0.0744804
0.0807124
0.0835238
0.0834355
0.0810504
0.076967
0.0717635
0.0658789
0.0595525
0.0528526
0.0457435
0.0381365
0.0298965
0.0208138
0.0106941
0.00194958
0.000516541
0.00475151
0.0100687
0.015229
0.0200551
0.0244723
0.0284246
0.0318661
0.0347644
0.0371061
0.0389041
0.0402029
0.0410855
0.0417162
0.0423981
0.0435112
0.0454956
0.0487754
0.0534396
0.0586163
0.0625701
0.0634952
0.0636395
0.0692197
0.0762351
0.0811804
0.0832946
0.0828679
0.0803763
0.0763922
0.0715006
0.0660946
0.0603076
0.0540866
0.0473046
0.0398259
0.031504
0.0221343
0.0115136
0.00209423
0.000570067
0.00545721
0.011635
0.01758
0.0230524
0.0279589
0.0322418
0.0358654
0.0388191
0.0411253
0.0428475
0.0440992
0.0450478
0.0459203
0.0469857
0.0485134
0.0507332
0.0537758
0.0575343
0.0615078
0.064798
0.066473
0.0677921
0.0720637
0.0773147
0.0810851
0.0826113
0.0819448
0.0793911
0.0755394
0.0710393
0.0662405
0.0611315
0.0555004
0.0491125
0.0417849
0.0333642
0.0236564
0.0124535
0.00224568
0.000618181
0.00613905
0.0131175
0.0197488
0.0257424
0.0309984
0.0354703
0.039146
0.0420509
0.0442565
0.0458832
0.0471126
0.0481553
0.0492344
0.0505563
0.0522785
0.0544927
0.0572183
0.0603851
0.0638093
0.0670472
0.0693602
0.0712624
0.0745128
0.078269
0.080981
0.0819724
0.0810555
0.0783299
0.0745147
0.0704045
0.0663048
0.0619976
0.0570633
0.0511395
0.0439938
0.0354664
0.0253762
0.0135137
0.00240424
0.000659328
0.00675446
0.0144109
0.0215742
0.0279227
0.0333641
0.0378727
0.0414674
0.0442141
0.0462437
0.0477384
0.0489142
0.0499962
0.0511877
0.052644
0.0544604
0.0566783
0.059308
0.0623518
0.0657945
0.0693394
0.0723132
0.0745355
0.0769917
0.0794904
0.0811962
0.0815468
0.0801889
0.0771022
0.0732333
0.0695205
0.0662284
0.0628579
0.0587379
0.0533607
0.046444
0.037815
0.027304
0.0147038
0.00257069
0.00069249
0.00726851
0.0154313
0.0229344
0.0294478
0.0348963
0.0392841
0.042672
0.0451781
0.0469749
0.0482796
0.0493308
0.0503541
0.0515331
0.0529959
0.05482
0.0570542
0.0597517
0.0629945
0.06687
0.0711237
0.0748375
0.0774033
0.079334
0.0807782
0.0814163
0.0808926
0.0787966
0.0751498
0.0712556
0.0681864
0.0659152
0.0636537
0.0604892
0.0557562
0.0491354
0.0404254
0.0294591
0.0160395
0.00274606
0.000718279
0.00764277
0.0160927
0.0237225
0.0302196
0.0355363
0.0397026
0.0428073
0.0450011
0.0464913
0.0475219
0.0483415
0.0491681
0.0501687
0.0514586
0.0531204
0.0552376
0.0579287
0.0613671
0.0657331
0.0708224
0.0754453
0.078544
0.0802375
0.080826
0.0804688
0.0790459
0.0762684
0.0722974
0.0687067
0.066511
0.0654006
0.064336
0.0622296
0.0582885
0.0520608
0.0433147
0.03186
0.0175385
0.00293187
0.000737542
0.0077867
0.0163411
0.0239608
0.0303306
0.0354158
0.0392675
0.0420022
0.0438016
0.0449008
0.0455599
0.0460269
0.0465062
0.0471474
0.0480573
0.0493289
0.0510825
0.0534986
0.0568259
0.0613599
0.0669899
0.0724114
0.0761196
0.0777529
0.077748
0.076685
0.0747454
0.0719294
0.0684454
0.0658496
0.0648845
0.0650355
0.0651725
0.0641195
0.0609685
0.0551625
0.04641
0.0345101
0.0192132
0.0031306
0.000749604
0.0077892
0.0163038
0.0237817
0.0299052
0.0346513
0.0380914
0.0403688
0.0416938
0.0423231
0.0425248
0.0425391
0.0425545
0.0427076
0.0431048
0.0438569
0.0451169
0.0470966
0.0501096
0.0544514
0.0601118
0.0658842
0.0699818
0.0715566
0.0713556
0.0702031
0.0685509
0.0666235
0.0645058
0.0634284
0.0637987
0.0651069
0.0663279
0.0662796
0.0639314
0.0585775
0.0498131
0.0373694
0.0209585
0.00334606
0.000756728
0.00770261
0.0160501
0.0232602
0.0290185
0.0333156
0.0362452
0.0379799
0.0387585
0.0388568
0.0385467
0.0380616
0.0375835
0.037256
0.0372111
0.0376042
0.0386302
0.0405194
0.043531
0.0478303
0.0533306
0.0589801
0.0629573
0.0645089
0.0646168
0.0640737
0.063381
0.0627761
0.0621904
0.0624466
0.0637768
0.0658638
0.0679045
0.0687461
0.0671975
0.0623364
0.0535852
0.0405628
0.0229088
0.00357497
0.000759218
0.00754512
0.0156113
0.0224316
0.0277013
0.0314293
0.0337399
0.0348434
0.035012
0.0345423
0.0337145
0.0327659
0.0318984
0.0312984
0.0311572
0.0316999
0.0331514
0.0357005
0.0394356
0.0443236
0.0498987
0.0551233
0.0585621
0.0602351
0.0609129
0.0612083
0.0614995
0.0619109
0.0623376
0.0632923
0.0649966
0.0673769
0.0698958
0.0714667
0.070709
0.0664031
0.0577195
0.0441078
0.025084
0.00381837
0.000757944
0.00732639
0.0149991
0.021294
0.0259254
0.0289346
0.0304951
0.0308705
0.0303772
0.0293415
0.0280662
0.0268123
0.0258352
0.0253951
0.0257315
0.0271017
0.0296766
0.0335504
0.0384904
0.0443795
0.0501507
0.0547999
0.0578885
0.0597188
0.0608596
0.061741
0.0626106
0.0634787
0.064316
0.0654422
0.0671094
0.0694347
0.0721438
0.0742859
0.0743218
0.0706712
0.0621599
0.0479939
0.0274949
0.00407735
0.000753624
0.00704753
0.0141958
0.0197845
0.0235677
0.0256541
0.0263048
0.0258613
0.0247001
0.0231948
0.0216972
0.0205024
0.0199275
0.0202687
0.0217346
0.0244661
0.0284605
0.0337903
0.0397656
0.0462282
0.0520611
0.0564603
0.0594616
0.0614419
0.0628513
0.0640072
0.0650828
0.0660477
0.066936
0.0679936
0.0694786
0.0716183
0.0743619
0.076962
0.0778127
0.0749613
0.0667955
0.0521814
0.0301458
0.0043536
0.000746888
0.00669584
0.0131299
0.0177289
0.0203448
0.0212436
0.020846
0.0195959
0.017949
0.0163387
0.0151788
0.0147394
0.0152972
0.0170269
0.0200501
0.0242029
0.0292759
0.0352272
0.0415831
0.0481285
0.0539084
0.0582611
0.0613395
0.0634865
0.0650702
0.0663471
0.0674531
0.0683723
0.0692159
0.070177
0.0715038
0.073478
0.0762181
0.0792136
0.0809089
0.0790296
0.0714544
0.0565934
0.0330341
0.00464988
0.000738734
0.00623567
0.0116193
0.0147472
0.0157583
0.0152735
0.0139653
0.0123524
0.0109565
0.0101636
0.01026
0.0113758
0.0136288
0.0168206
0.0209075
0.0256808
0.0309969
0.0368048
0.0429034
0.0491399
0.0547334
0.0590907
0.062315
0.064658
0.0664085
0.0677807
0.0688803
0.0697812
0.0706099
0.0715317
0.0727825
0.0746663
0.0774208
0.0807715
0.0833211
0.0825804
0.0758961
0.0611013
0.0361464
0.00497105
0.000729928
0.00555443
0.00922194
0.0102196
0.00945894
0.00811321
0.00694867
0.00625887
0.00639427
0.00744841
0.00928615
0.011905
0.0152024
0.0189812
0.0231695
0.0276938
0.0325303
0.0376993
0.0431287
0.048828
0.0541682
0.0585488
0.0619409
0.0645015
0.0664403
0.0679291
0.0690901
0.0700439
0.0709177
0.0718694
0.0731232
0.0749866
0.0777734
0.0814217
0.0847757
0.085278
0.0797915
0.0654831
0.03944
0.00532744
0.000724709
0.00432105
0.00532882
0.00455175
0.00358044
0.00328409
0.0037748
0.00502897
0.00685841
0.00922546
0.0119739
0.0150029
0.0182339
0.0216226
0.025188
0.0289269
0.0329253
0.037272
0.0420235
0.0472232
0.0523113
0.0566731
0.0602282
0.063013
0.0651548
0.066802
0.068098
0.0691703
0.0701478
0.0711867
0.0724999
0.074386
0.0771963
0.0810394
0.0850485
0.0867629
0.082684
0.0693137
0.0427908
0.00575128
0.000733693
0.00222096
0.00201059
0.00213218
0.00290616
0.00441785
0.00625757
0.00838531
0.0106834
0.0130627
0.015417
0.0177598
0.0201584
0.0226888
0.0254231
0.0284154
0.0317469
0.0354929
0.0397288
0.0445285
0.0494063
0.0537492
0.0574239
0.0604042
0.0627592
0.0646072
0.066081
0.0673121
0.0684322
0.0695944
0.0709989
0.072924
0.0757228
0.0796159
0.0840272
0.0867413
0.0840599
0.071852
0.0457594
0.00640898
0.00103975
0.00190818
0.00320144
0.00497678
0.00717111
0.00898428
0.0104974
0.0118381
0.0131122
0.0144222
0.0158286
0.0174106
0.0192089
0.0212459
0.0235458
0.0261505
0.029116
0.0325128
0.0364323
0.0409802
0.0457216
0.0500583
0.0538357
0.056989
0.0595465
0.0615989
0.0632663
0.064676
0.0659586
0.0672622
0.0687714
0.0707358
0.0734817
0.0772781
0.0818198
0.0853287
0.0840237
0.0732559
0.0486662
0.00717163
0.00337181
0.00331335
0.00326159
0.0032153
0.00317362
0.00313592
0.00310168
0.0030705
0.00304201
0.00301594
0.00299201
0.00297001
0.00294975
0.00293104
0.00291374
0.00289773
0.00288287
0.00286906
0.00285621
0.00284423
0.00283306
0.00282261
0.00281283
0.00280366
0.00279506
0.00278696
0.00277932
0.00277209
0.00276518
0.00275803
0.0290883
0.0201261
0.0165534
0.0145506
0.0132416
0.0123066
0.0115993
0.0110423
0.0105905
0.0102156
0.00989891
0.00962753
0.00939217
0.00918599
0.00900382
0.00884167
0.0086964
0.00856552
0.00844697
0.00833909
0.00824048
0.00814993
0.00806639
0.0079889
0.00791652
0.00784811
0.00778212
0.00771571
0.00764425
0.00755574
0.0688034
0.0517109
0.0428292
0.0374253
0.0337925
0.03118
0.0292084
0.0276662
0.0264258
0.0254059
0.0245522
0.0238266
0.0232022
0.0226589
0.0221817
0.0217591
0.0213822
0.0210437
0.020738
0.0204604
0.0202069
0.0199745
0.0197602
0.0195615
0.0193764
0.0192023
0.0190371
0.0188778
0.0187216
0.0185628
0.0910728
0.0781382
0.0686684
0.0617917
0.0566696
0.0527409
0.0496464
0.0471527
0.0451041
0.0433935
0.0419451
0.0407038
0.0396288
0.0386893
0.0378616
0.037127
0.0364709
0.0358814
0.035349
0.0348656
0.0344249
0.0340212
0.0336497
0.0333065
0.0329878
0.0326904
0.0324112
0.0321471
0.0318955
0.0316537
0.0997303
0.0929026
0.0862616
0.0804674
0.0755865
0.0715067
0.0680861
0.0651975
0.0627375
0.0606242
0.0587938
0.057196
0.0557912
0.0545481
0.0534415
0.0524508
0.0515596
0.0507541
0.0500228
0.0493564
0.0487466
0.0481867
0.0476707
0.0471936
0.0467508
0.0463383
0.0459526
0.0455905
0.0452492
0.0449257
0.102739
0.0996744
0.0959623
0.092148
0.0885199
0.0851967
0.0822078
0.0795413
0.0771685
0.0750564
0.0731725
0.0714875
0.0699754
0.0686136
0.0673831
0.0662674
0.0652523
0.064326
0.0634779
0.0626993
0.0619824
0.0613205
0.0607077
0.0601389
0.0596095
0.0591155
0.0586534
0.0582199
0.0578122
0.0574267
0.103741
0.102462
0.100642
0.0984979
0.0962206
0.0939415
0.09174
0.0896585
0.0877158
0.0859165
0.0842573
0.0827306
0.081327
0.0800364
0.0788489
0.0777549
0.0767457
0.0758133
0.0749504
0.0741505
0.0734076
0.0727166
0.0720725
0.0714713
0.0709089
0.070382
0.0698874
0.0694224
0.0689843
0.0685693
0.104068
0.103535
0.102699
0.101608
0.100337
0.0989583
0.0975333
0.0961065
0.0947086
0.0933592
0.0920699
0.0908468
0.089692
0.0886053
0.0875847
0.0866275
0.0857303
0.0848895
0.0841014
0.0833625
0.0826693
0.0820184
0.0814069
0.0808317
0.0802903
0.0797801
0.0792988
0.0788443
0.0784143
0.0780055
0.104172
0.103927
0.103543
0.103013
0.102352
0.101588
0.100749
0.0998648
0.0989571
0.0980445
0.097141
0.0962565
0.0953981
0.0945702
0.0937756
0.0930158
0.0922911
0.0916012
0.0909456
0.0903229
0.089732
0.0891715
0.0886398
0.0881355
0.0876571
0.0872031
0.0867722
0.0863629
0.0859737
0.0856017
0.104204
0.104065
0.10387
0.103605
0.103268
0.102862
0.102398
0.101886
0.10134
0.100771
0.100188
0.0996001
0.0990138
0.0984344
0.097866
0.0973114
0.0967729
0.0962519
0.0957492
0.0952654
0.0948005
0.0943546
0.0939273
0.0935181
0.0931266
0.0927522
0.0923943
0.0920521
0.0917246
0.0914095
0.104213
0.104111
0.10399
0.103841
0.103658
0.103439
0.103184
0.102897
0.102582
0.102245
0.10189
0.101523
0.101148
0.100769
0.10039
0.100012
0.0996396
0.0992729
0.0989139
0.0985636
0.0982228
0.097892
0.0975717
0.097262
0.0969629
0.0966745
0.0963967
0.0961292
0.0958713
0.0956215
0.104214
0.104125
0.104032
0.10393
0.103814
0.103683
0.103535
0.103369
0.103187
0.102989
0.102778
0.102556
0.102325
0.102088
0.101846
0.101602
0.101358
0.101113
0.100871
0.100632
0.100396
0.100165
0.0999384
0.0997175
0.0995023
0.099293
0.0990898
0.0988927
0.0987013
0.0985145
0.104214
0.104129
0.104045
0.103961
0.103873
0.103781
0.103682
0.103576
0.103462
0.10334
0.103211
0.103074
0.102932
0.102785
0.102634
0.10248
0.102323
0.102166
0.102008
0.10185
0.101694
0.101539
0.101386
0.101235
0.101087
0.100942
0.1008
0.100662
0.100527
0.100394
0.104213
0.104129
0.104048
0.103971
0.103894
0.103818
0.10374
0.103661
0.10358
0.103496
0.103409
0.103319
0.103226
0.103131
0.103033
0.102933
0.102832
0.10273
0.102628
0.102525
0.102422
0.10232
0.102218
0.102118
0.102019
0.101921
0.101825
0.101731
0.101638
0.101546
0.104211
0.104128
0.104048
0.103973
0.1039
0.10383
0.103761
0.103694
0.103627
0.103561
0.103494
0.103427
0.103359
0.103291
0.103223
0.103154
0.103085
0.103015
0.102946
0.102876
0.102807
0.102738
0.102669
0.102602
0.102535
0.102469
0.102404
0.10234
0.102276
0.102213
0.10421
0.104126
0.104047
0.103972
0.103901
0.103833
0.103768
0.103705
0.103644
0.103585
0.103528
0.103471
0.103416
0.103361
0.103308
0.103254
0.103202
0.10315
0.103099
0.103048
0.102997
0.102948
0.102899
0.102851
0.102804
0.102757
0.102711
0.102666
0.102622
0.102577
0.104208
0.104125
0.104046
0.103971
0.1039
0.103833
0.103769
0.103708
0.10365
0.103594
0.10354
0.103488
0.103438
0.10339
0.103343
0.103297
0.103253
0.103209
0.103167
0.103126
0.103086
0.103047
0.103009
0.102972
0.102935
0.1029
0.102865
0.102831
0.102798
0.102764
0.104206
0.104123
0.104044
0.10397
0.103899
0.103832
0.103768
0.103708
0.10365
0.103596
0.103543
0.103493
0.103445
0.1034
0.103356
0.103314
0.103273
0.103234
0.103196
0.10316
0.103125
0.103091
0.103058
0.103026
0.102995
0.102966
0.102937
0.102909
0.102881
0.102854
0.104205
0.104121
0.104042
0.103968
0.103897
0.10383
0.103767
0.103707
0.103649
0.103595
0.103543
0.103494
0.103447
0.103402
0.10336
0.103319
0.10328
0.103242
0.103207
0.103172
0.10314
0.103108
0.103078
0.103049
0.103021
0.102994
0.102968
0.102943
0.102919
0.102894
0.104203
0.10412
0.104041
0.103966
0.103895
0.103829
0.103765
0.103705
0.103648
0.103594
0.103542
0.103493
0.103446
0.103402
0.10336
0.10332
0.103281
0.103245
0.10321
0.103176
0.103144
0.103114
0.103085
0.103057
0.10303
0.103005
0.10298
0.102957
0.102934
0.102911
0.104201
0.104118
0.104039
0.103964
0.103894
0.103827
0.103763
0.103703
0.103646
0.103592
0.10354
0.103491
0.103445
0.103401
0.103359
0.103319
0.103281
0.103244
0.10321
0.103177
0.103145
0.103115
0.103086
0.103059
0.103033
0.103008
0.102984
0.102961
0.102939
0.102917
0.104199
0.104116
0.104037
0.103962
0.103892
0.103825
0.103761
0.103701
0.103644
0.10359
0.103539
0.10349
0.103443
0.103399
0.103357
0.103317
0.103279
0.103243
0.103208
0.103175
0.103144
0.103114
0.103086
0.103058
0.103033
0.103008
0.102984
0.102961
0.102939
0.102918
0.104197
0.104114
0.104035
0.10396
0.10389
0.103823
0.103759
0.103699
0.103642
0.103588
0.103537
0.103488
0.103441
0.103397
0.103355
0.103315
0.103277
0.103241
0.103206
0.103174
0.103142
0.103113
0.103084
0.103057
0.103031
0.103006
0.102983
0.10296
0.102938
0.102917
0.104195
0.104112
0.104033
0.103958
0.103888
0.103821
0.103757
0.103697
0.10364
0.103586
0.103535
0.103486
0.103439
0.103395
0.103353
0.103313
0.103275
0.103239
0.103205
0.103172
0.10314
0.103111
0.103082
0.103055
0.103029
0.103005
0.102981
0.102959
0.102937
0.102915
0.104193
0.10411
0.104031
0.103956
0.103886
0.103819
0.103755
0.103695
0.103638
0.103584
0.103532
0.103484
0.103437
0.103393
0.103351
0.103311
0.103273
0.103237
0.103202
0.10317
0.103138
0.103109
0.10308
0.103053
0.103027
0.103003
0.102979
0.102957
0.102935
0.102913
0.104191
0.104107
0.104029
0.103954
0.103883
0.103817
0.103753
0.103693
0.103636
0.103582
0.10353
0.103481
0.103435
0.103391
0.103349
0.103309
0.103271
0.103235
0.1032
0.103168
0.103136
0.103106
0.103078
0.103051
0.103025
0.103001
0.102977
0.102954
0.102933
0.102911
0.104189
0.104105
0.104026
0.103952
0.103881
0.103814
0.103751
0.103691
0.103634
0.10358
0.103528
0.103479
0.103433
0.103389
0.103347
0.103307
0.103269
0.103233
0.103198
0.103165
0.103134
0.103104
0.103076
0.103049
0.103023
0.102998
0.102975
0.102952
0.10293
0.102909
0.104186
0.104103
0.104024
0.103949
0.103879
0.103812
0.103749
0.103688
0.103631
0.103577
0.103526
0.103477
0.103431
0.103386
0.103344
0.103304
0.103266
0.10323
0.103196
0.103163
0.103132
0.103102
0.103074
0.103047
0.103021
0.102996
0.102973
0.10295
0.102928
0.102907
0.104184
0.104101
0.104022
0.103947
0.103876
0.10381
0.103746
0.103686
0.103629
0.103575
0.103523
0.103475
0.103428
0.103384
0.103342
0.103302
0.103264
0.103228
0.103193
0.103161
0.103129
0.1031
0.103071
0.103044
0.103018
0.102994
0.10297
0.102948
0.102926
0.102904
0.104181
0.104098
0.104019
0.103945
0.103874
0.103807
0.103744
0.103684
0.103627
0.103572
0.103521
0.103472
0.103426
0.103382
0.10334
0.1033
0.103262
0.103225
0.103191
0.103158
0.103127
0.103097
0.103069
0.103042
0.103016
0.102991
0.102968
0.102945
0.102923
0.102902
0.104179
0.104096
0.104017
0.103942
0.103871
0.103805
0.103741
0.103681
0.103624
0.10357
0.103518
0.10347
0.103423
0.103379
0.103337
0.103297
0.103259
0.103223
0.103189
0.103156
0.103124
0.103095
0.103066
0.103039
0.103013
0.102989
0.102965
0.102943
0.102921
0.102899
0.104176
0.104093
0.104014
0.103939
0.103869
0.103802
0.103739
0.103678
0.103621
0.103567
0.103516
0.103467
0.103421
0.103376
0.103334
0.103295
0.103257
0.10322
0.103186
0.103153
0.103122
0.103092
0.103064
0.103037
0.103011
0.102986
0.102963
0.10294
0.102918
0.102897
0.104174
0.10409
0.104011
0.103937
0.103866
0.103799
0.103736
0.103676
0.103619
0.103565
0.103513
0.103464
0.103418
0.103374
0.103332
0.103292
0.103254
0.103218
0.103183
0.10315
0.103119
0.103089
0.103061
0.103034
0.103008
0.102984
0.10296
0.102938
0.102916
0.102894
0.104171
0.104087
0.104009
0.103934
0.103863
0.103796
0.103733
0.103673
0.103616
0.103562
0.10351
0.103462
0.103415
0.103371
0.103329
0.103289
0.103251
0.103215
0.103181
0.103148
0.103116
0.103087
0.103058
0.103031
0.103005
0.102981
0.102957
0.102935
0.102913
0.102891
0.104168
0.104084
0.104006
0.103931
0.10386
0.103794
0.10373
0.10367
0.103613
0.103559
0.103508
0.103459
0.103412
0.103368
0.103326
0.103286
0.103248
0.103212
0.103178
0.103145
0.103114
0.103084
0.103055
0.103028
0.103003
0.102978
0.102954
0.102932
0.10291
0.102889
0.104165
0.104081
0.104003
0.103928
0.103858
0.103791
0.103727
0.103667
0.10361
0.103556
0.103505
0.103456
0.103409
0.103365
0.103323
0.103283
0.103245
0.103209
0.103175
0.103142
0.103111
0.103081
0.103053
0.103025
0.103
0.102975
0.102952
0.102929
0.102907
0.102886
0.104162
0.104078
0.104
0.103925
0.103854
0.103788
0.103724
0.103664
0.103607
0.103553
0.103501
0.103453
0.103406
0.103362
0.10332
0.10328
0.103242
0.103206
0.103172
0.103139
0.103108
0.103078
0.10305
0.103022
0.102997
0.102972
0.102949
0.102926
0.102904
0.102883
0.104159
0.104075
0.103996
0.103922
0.103851
0.103784
0.103721
0.103661
0.103604
0.10355
0.103498
0.10345
0.103403
0.103359
0.103317
0.103277
0.103239
0.103203
0.103169
0.103136
0.103105
0.103075
0.103046
0.103019
0.102994
0.102969
0.102945
0.102923
0.102901
0.102879
0.104155
0.104072
0.103993
0.103919
0.103848
0.103781
0.103718
0.103658
0.103601
0.103546
0.103495
0.103446
0.1034
0.103356
0.103314
0.103274
0.103236
0.1032
0.103165
0.103133
0.103101
0.103072
0.103043
0.103016
0.10299
0.102966
0.102942
0.10292
0.102898
0.102876
0.104152
0.104069
0.10399
0.103915
0.103845
0.103778
0.103714
0.103654
0.103597
0.103543
0.103492
0.103443
0.103396
0.103352
0.10331
0.103271
0.103233
0.103196
0.103162
0.103129
0.103098
0.103068
0.10304
0.103013
0.102987
0.102962
0.102939
0.102916
0.102895
0.102873
0.104148
0.104065
0.103986
0.103912
0.103841
0.103774
0.103711
0.103651
0.103594
0.10354
0.103488
0.103439
0.103393
0.103349
0.103307
0.103267
0.103229
0.103193
0.103159
0.103126
0.103095
0.103065
0.103036
0.103009
0.102984
0.102959
0.102935
0.102913
0.102891
0.102869
0.104145
0.104061
0.103983
0.103908
0.103837
0.103771
0.103707
0.103647
0.10359
0.103536
0.103485
0.103436
0.103389
0.103345
0.103303
0.103263
0.103226
0.103189
0.103155
0.103122
0.103091
0.103061
0.103033
0.103006
0.10298
0.102955
0.102932
0.102909
0.102888
0.102866
0.104141
0.104058
0.103979
0.103904
0.103834
0.103767
0.103704
0.103643
0.103586
0.103532
0.103481
0.103432
0.103386
0.103342
0.1033
0.10326
0.103222
0.103186
0.103151
0.103118
0.103087
0.103058
0.103029
0.103002
0.102976
0.102952
0.102928
0.102906
0.102884
0.102862
0.104137
0.104054
0.103975
0.1039
0.10383
0.103763
0.1037
0.10364
0.103583
0.103529
0.103477
0.103428
0.103382
0.103338
0.103296
0.103256
0.103218
0.103182
0.103147
0.103115
0.103083
0.103054
0.103025
0.102998
0.102973
0.102948
0.102924
0.102902
0.10288
0.102858
0.104133
0.10405
0.103971
0.103897
0.103826
0.103759
0.103696
0.103636
0.103579
0.103525
0.103473
0.103424
0.103378
0.103334
0.103292
0.103252
0.103214
0.103178
0.103144
0.103111
0.10308
0.10305
0.103021
0.102994
0.102969
0.102944
0.102921
0.102898
0.102876
0.102855
0.104129
0.104046
0.103967
0.103892
0.103822
0.103755
0.103692
0.103632
0.103575
0.10352
0.103469
0.10342
0.103374
0.10333
0.103288
0.103248
0.10321
0.103174
0.103139
0.103107
0.103075
0.103046
0.103017
0.10299
0.102965
0.10294
0.102916
0.102894
0.102872
0.102851
0.104125
0.104041
0.103963
0.103888
0.103818
0.103751
0.103687
0.103627
0.10357
0.103516