/*--------------------------------*- C++ -*----------------------------------*\
| =========                 |                                                 |
| \\      /  F ield         | OpenFOAM: The Open Source CFD Toolbox           |
|  \\    /   O peration     | Version:  2.2.0                                 |
|   \\  /    A nd           | Web:      www.OpenFOAM.org                      |
|    \\/     M anipulation  |                                                 |
\*---------------------------------------------------------------------------*/
FoamFile
{
    version     2.0;
    format      ascii;
    class       surfaceScalarField;
    location    "2000";
    object      phi;
}
// * * * * * * * * * * * * * * * * * * * * * * * * * * * * * * * * * * * * * //

dimensions      [1 0 -1 0 0 0 0];

internalField   nonuniform List<scalar> 
15000
(
-5.52063e-07
5.52063e-07
-7.47826e-07
1.95756e-07
-5.34973e-07
-2.12855e-07
-1.37362e-08
-5.2124e-07
7.06476e-07
-7.20218e-07
1.54e-06
-8.33531e-07
2.42884e-06
-8.88849e-07
3.31266e-06
-8.83823e-07
4.12689e-06
-8.14242e-07
4.8028e-06
-6.7592e-07
5.26257e-06
-4.59776e-07
5.40845e-06
-1.45891e-07
5.16491e-06
2.43541e-07
4.42406e-06
7.40834e-07
3.29077e-06
1.13329e-06
1.72596e-06
1.5648e-06
7.55707e-07
9.70248e-07
-6.72986e-08
8.23002e-07
-6.69796e-08
-3.21819e-10
-7.09123e-08
3.93271e-09
-7.63005e-08
5.38816e-09
3.82834e-08
-1.14584e-07
-0.000133063
0.000133101
-0.000208717
7.56542e-05
-0.000286127
7.74103e-05
-0.000331062
4.49347e-05
-0.000357548
2.64865e-05
-0.000366535
8.98679e-06
-0.000362031
-4.50404e-06
-0.000346139
-1.58923e-05
-0.000321126
-2.50127e-05
-0.00028895
-3.21759e-05
-0.000251369
-3.75811e-05
-0.00020999
-4.13794e-05
-0.000166346
-4.36438e-05
-0.000122028
-4.43177e-05
-7.89265e-05
-4.31016e-05
-3.91447e-05
-3.97818e-05
-4.90657e-06
-3.42381e-05
-4.90657e-06
-1.87156e-07
7.39213e-07
-4.27295e-08
5.13205e-08
3.03288e-07
-5.5888e-07
8.15769e-07
-1.03373e-06
1.47189e-06
-1.37635e-06
2.23367e-06
-1.59532e-06
3.05195e-06
-1.70714e-06
3.87455e-06
-1.70643e-06
4.64041e-06
-1.58012e-06
5.27615e-06
-1.31167e-06
5.69486e-06
-8.7849e-07
5.80743e-06
-2.58465e-07
5.51928e-06
5.31681e-07
4.77435e-06
1.48575e-06
3.56631e-06
2.34132e-06
2.07713e-06
3.05398e-06
8.03979e-07
2.24339e-06
-7.39802e-08
1.70095e-06
-7.39032e-08
-3.99729e-10
-7.89931e-08
9.02263e-09
-8.58137e-08
1.22088e-08
-1.79426e-07
-2.09717e-08
-0.00013279
0.000265711
-0.000237735
0.000180599
-0.000315743
0.000155418
-0.000364999
9.4191e-05
-0.000392206
5.36932e-05
-0.000401217
1.79979e-05
-0.000395668
-1.00531e-05
-0.000378414
-3.31465e-05
-0.000351935
-5.14917e-05
-0.000318441
-6.56698e-05
-0.000279913
-7.61094e-05
-0.000238147
-8.31452e-05
-0.000194817
-8.69741e-05
-0.00015152
-8.76141e-05
-0.000109777
-8.48442e-05
-7.12934e-05
-7.82659e-05
-3.8766e-05
-6.67655e-05
-4.36726e-05
2.23983e-07
5.15227e-07
5.85502e-07
-3.10204e-07
1.02491e-06
-9.98284e-07
1.55249e-06
-1.56132e-06
2.17767e-06
-2.00153e-06
2.89073e-06
-2.30838e-06
3.65851e-06
-2.47493e-06
4.43482e-06
-2.48274e-06
5.16001e-06
-2.30531e-06
5.75966e-06
-1.91133e-06
6.14515e-06
-1.26398e-06
6.22371e-06
-3.37021e-07
5.89702e-06
8.58365e-07
5.11794e-06
2.26483e-06
3.86896e-06
3.5903e-06
2.35088e-06
4.57205e-06
9.04126e-07
3.69014e-06
-8.14172e-08
2.68649e-06
-8.14577e-08
-3.59708e-10
-8.70877e-08
1.46526e-08
-9.5119e-08
2.02401e-08
-1.86692e-07
7.06016e-08
-0.000136882
0.000402407
-0.00025659
0.000300308
-0.000337455
0.000236282
-0.000390183
0.000146919
-0.000418755
8.22658e-05
-0.000428339
2.75816e-05
-0.000422534
-1.58579e-05
-0.000404587
-5.1094e-05
-0.000377153
-7.89254e-05
-0.00034261
-0.000100213
-0.000303046
-0.000115674
-0.000260291
-0.0001259
-0.000215933
-0.000131332
-0.000171304
-0.000132243
-0.000127409
-0.00012874
-8.49207e-05
-0.000120754
-4.38088e-05
-0.000107877
-8.74814e-05
5.71779e-07
-5.65565e-08
1.13082e-06
-8.69248e-07
1.6889e-06
-1.55637e-06
2.27983e-06
-2.15226e-06
2.92548e-06
-2.64717e-06
3.63045e-06
-3.01335e-06
4.37596e-06
-3.22044e-06
5.12411e-06
-3.23089e-06
5.81885e-06
-3.00006e-06
6.38642e-06
-2.4789e-06
6.73808e-06
-1.61565e-06
6.77697e-06
-3.75906e-07
6.40038e-06
1.23495e-06
5.56527e-06
3.09993e-06
4.25365e-06
4.90192e-06
2.65486e-06
6.17084e-06
1.03331e-06
5.31169e-06
-8.96143e-08
3.80942e-06
-8.96639e-08
-3.10539e-10
-9.56979e-08
2.06866e-08
-1.04043e-07
2.85856e-08
-1.38669e-07
1.05227e-07
-0.000142285
0.000544553
-0.000271427
0.000429449
-0.000356076
0.000320931
-0.000412096
0.00020294
-0.000442348
0.000112517
-0.000452625
3.78587e-05
-0.000446656
-2.18272e-05
-0.000427938
-6.98114e-05
-0.000399356
-0.000107507
-0.000363439
-0.00013613
-0.000322354
-0.00015676
-0.000277933
-0.000170321
-0.000231681
-0.000177584
-0.000184759
-0.000179165
-0.000137954
-0.000175545
-9.16815e-05
-0.000167026
-4.59446e-05
-0.000153614
-0.000133426
8.42354e-07
-8.98912e-07
1.60864e-06
-1.63554e-06
2.32598e-06
-2.2737e-06
3.03159e-06
-2.85787e-06
3.75074e-06
-3.36633e-06
4.49452e-06
-3.75713e-06
5.25366e-06
-3.97958e-06
5.99796e-06
-3.97519e-06
6.67612e-06
-3.67822e-06
7.21637e-06
-3.01915e-06
7.52998e-06
-1.92925e-06
7.5182e-06
-3.64125e-07
7.07906e-06
1.67409e-06
6.16182e-06
4.01718e-06
4.75135e-06
6.31239e-06
3.02155e-06
7.90064e-06
1.19519e-06
7.13804e-06
-9.8475e-08
5.10308e-06
-9.85311e-08
-2.54865e-10
-1.04878e-07
2.70336e-08
-1.13469e-07
3.71765e-08
-1.38573e-07
1.30331e-07
-0.00014736
0.000691775
-0.000283012
0.000565101
-0.000371647
0.000409566
-0.000430672
0.000261965
-0.000462592
0.000144437
-0.000473455
4.87221e-05
-0.000467176
-2.81065e-05
-0.000447521
-8.94666e-05
-0.000417598
-0.00013743
-0.000380084
-0.000173644
-0.000337232
-0.000199612
-0.000290908
-0.000216645
-0.0002426
-0.000225892
-0.000193424
-0.00022834
-0.000144134
-0.000224835
-9.5167e-05
-0.000215993
-4.68294e-05
-0.000201952
-0.000180255
1.05879e-06
-1.95771e-06
2.04171e-06
-2.61846e-06
2.95689e-06
-3.18888e-06
3.8296e-06
-3.73059e-06
4.67956e-06
-4.21628e-06
5.51683e-06
-4.59441e-06
6.33565e-06
-4.7984e-06
7.1105e-06
-4.75004e-06
7.79399e-06
-4.36172e-06
8.31664e-06
-3.5418e-06
8.58999e-06
-2.2026e-06
8.51433e-06
-2.88466e-07
7.99171e-06
2.1967e-06
6.95767e-06
5.05122e-06
5.39975e-06
7.8703e-06
3.47793e-06
9.82246e-06
1.39883e-06
9.21714e-06
-1.07985e-07
6.60989e-06
-1.0805e-07
-1.90351e-10
-1.14639e-07
3.36225e-08
-1.23301e-07
4.58382e-08
-1.48876e-07
1.55906e-07
-0.000151414
0.00084304
-0.000291264
0.000704951
-0.000383612
0.000501915
-0.000445222
0.000323574
-0.000478613
0.000177828
-0.000489879
5.99875e-05
-0.000483183
-3.48019e-05
-0.000462538
-0.000110111
-0.000431269
-0.000168699
-0.000392192
-0.000212721
-0.000347651
-0.000244152
-0.000299564
-0.000264732
-0.000249448
-0.000276008
-0.000198442
-0.000279346
-0.000147357
-0.00027592
-9.67399e-05
-0.000266611
-4.71094e-05
-0.000251582
-0.000227365
1.26605e-06
-3.22376e-06
2.47331e-06
-3.82573e-06
3.61719e-06
-4.33277e-06
4.70571e-06
-4.81911e-06
5.7457e-06
-5.25627e-06
6.73851e-06
-5.58722e-06
7.67427e-06
-5.73416e-06
8.52651e-06
-5.60229e-06
9.2484e-06
-5.0836e-06
9.77114e-06
-4.06454e-06
1.00064e-05
-2.43784e-06
9.85371e-06
-1.35801e-07
9.21515e-06
2.83526e-06
8.01758e-06
6.24878e-06
6.24866e-06
9.63922e-06
4.05662e-06
1.20145e-05
1.65707e-06
1.16167e-05
-1.18111e-07
8.38506e-06
-1.18186e-07
-1.14919e-10
-1.2487e-07
4.03064e-08
-1.33213e-07
5.41805e-08
-1.57262e-07
1.79956e-07
-0.000153849
0.000996732
-0.000295896
0.000846998
-0.000391362
0.00059738
-0.000455043
0.000387256
-0.000489648
0.000212433
-0.000501183
7.15228e-05
-0.000494085
-4.18997e-05
-0.000472574
-0.000131622
-0.000440157
-0.000201116
-0.000399771
-0.000253108
-0.000353842
-0.00029008
-0.00030435
-0.000314225
-0.000252862
-0.000327496
-0.000200584
-0.000331624
-0.00014841
-0.000328093
-9.70022e-05
-0.000318019
-4.69766e-05
-0.000301608
-0.000274341
1.46848e-06
-4.69224e-06
2.92163e-06
-5.27889e-06
4.33374e-06
-5.74489e-06
5.69409e-06
-6.17946e-06
6.99205e-06
-6.55423e-06
8.21382e-06
-6.80899e-06
9.33781e-06
-6.85815e-06
1.03294e-05
-6.5939e-06
1.11367e-05
-5.89084e-06
1.16877e-05
-4.61553e-06
1.18921e-05
-2.64228e-06
1.16473e-05
1.08965e-07
1.08528e-05
3.62979e-06
9.42994e-06
7.67163e-06
7.36543e-06
1.17037e-05
4.80093e-06
1.4579e-05
1.98753e-06
1.44301e-05
-1.2879e-07
1.05014e-05
-1.2888e-07
-2.5788e-11
-1.35455e-07
4.68819e-08
-1.43293e-07
6.20184e-08
-1.60181e-07
1.96844e-07
-0.000154111
0.00115068
-0.000296558
0.000989445
-0.000394376
0.000695199
-0.000459581
0.000452461
-0.000495156
0.000248007
-0.000506933
8.33004e-05
-0.000499596
-4.92373e-05
-0.00047751
-0.000153708
-0.000444315
-0.000234311
-0.000403036
-0.000294387
-0.000356172
-0.000336945
-0.000305759
-0.000364637
-0.000253432
-0.000379823
-0.000200469
-0.000384587
-0.000147853
-0.00038071
-9.63198e-05
-0.000369552
-4.6503e-05
-0.000351425
-0.000320844
1.6627e-06
-6.35495e-06
3.39437e-06
-7.01058e-06
5.12922e-06
-7.47974e-06
6.83318e-06
-7.88342e-06
8.47377e-06
-8.19482e-06
1.00159e-05
-8.35115e-06
1.14186e-05
-8.26085e-06
1.26308e-05
-7.80605e-06
1.35876e-05
-6.84763e-06
1.4208e-05
-5.23593e-06
1.43954e-05
-2.82975e-06
1.40421e-05
4.62319e-07
1.30427e-05
4.62917e-06
1.13135e-05
9.40082e-06
8.84139e-06
1.41759e-05
5.76965e-06
1.76507e-05
2.41427e-06
1.77855e-05
-1.39933e-07
1.30556e-05
-1.40041e-07
8.1693e-11
-1.46367e-07
5.32083e-08
-1.53728e-07
6.93791e-08
-1.64128e-07
2.07243e-07
-0.000151928
0.00130245
-0.000293016
0.00113053
-0.000392336
0.00079452
-0.00045854
0.000518664
-0.000494906
0.000284374
-0.000507023
9.54175e-05
-0.000499748
-5.65128e-05
-0.000477515
-0.000175941
-0.000444038
-0.000267788
-0.000402395
-0.000336029
-0.000355137
-0.000384203
-0.000304358
-0.000415417
-0.000251751
-0.00043243
-0.000198665
-0.000437673
-0.000146145
-0.00043323
-9.49756e-05
-0.000420721
-4.57674e-05
-0.000400633
-0.000366612
1.86885e-06
-8.22381e-06
3.92065e-06
-9.06239e-06
6.04625e-06
-9.60534e-06
8.18333e-06
-1.00205e-05
1.02721e-05
-1.02836e-05
1.22493e-05
-1.03283e-05
1.40455e-05
-1.0057e-05
1.55832e-05
-9.34382e-06
1.67751e-05
-8.03949e-06
1.75221e-05
-5.98291e-06
1.77145e-05
-3.02219e-06
1.72347e-05
9.42082e-07
1.59694e-05
5.89449e-06
1.38285e-05
1.15418e-05
1.08009e-05
1.72035e-05
7.04324e-06
2.14084e-05
2.97037e-06
2.18583e-05
-1.51387e-07
1.61773e-05
-1.51522e-07
2.1546e-10
-1.57542e-07
5.92285e-08
-1.64501e-07
7.63379e-08
-1.70526e-07
2.13269e-07
-0.000147166
0.00144944
-0.000285265
0.00126863
-0.000385223
0.000894478
-0.000451973
0.000585414
-0.000489049
0.000321449
-0.000501724
0.000108092
-0.000494925
-6.33115e-05
-0.00047307
-0.000197796
-0.000439883
-0.000300975
-0.000398463
-0.000377449
-0.000351393
-0.000431273
-0.000300807
-0.000466002
-0.000248451
-0.000484786
-0.000195722
-0.000490401
-0.000143712
-0.00048524
-9.32315e-05
-0.000471202
-4.48702e-05
-0.000448994
-0.000411482
2.13775e-06
-1.03616e-05
4.58027e-06
-1.15049e-05
7.18363e-06
-1.22087e-05
9.86016e-06
-1.2697e-05
1.25213e-05
-1.29447e-05
1.50699e-05
-1.28769e-05
1.73995e-05
-1.23867e-05
1.93949e-05
-1.13392e-05
2.09328e-05
-9.57735e-06
2.18837e-05
-6.93381e-06
2.21141e-05
-3.25265e-06
2.1489e-05
1.56724e-06
1.9881e-05
7.50242e-06
1.71916e-05
1.42313e-05
1.34137e-05
2.09813e-05
8.73259e-06
2.60895e-05
3.70194e-06
2.6889e-05
-1.6296e-07
2.00422e-05
-1.63134e-07
3.89304e-10
-1.68895e-07
6.49892e-08
-1.75607e-07
8.30504e-08
-1.78398e-07
2.1606e-07
-0.000139862
0.00158913
-0.000273643
0.00140241
-0.000373435
0.00099427
-0.000440388
0.000652367
-0.000478201
0.000359262
-0.000491757
0.000121648
-0.000485927
-6.91409e-05
-0.000465024
-0.000218699
-0.000432724
-0.000333275
-0.000392111
-0.000418063
-0.000345776
-0.000477607
-0.000295884
-0.000515895
-0.000244213
-0.000536457
-0.000192198
-0.000542416
-0.000140963
-0.000536475
-9.13415e-05
-0.000520824
-4.39202e-05
-0.000496416
-0.000455402
2.56296e-06
-1.29245e-05
5.52471e-06
-1.44667e-05
8.72558e-06
-1.54096e-05
1.2065e-05
-1.60365e-05
1.54332e-05
-1.63129e-05
1.87017e-05
-1.61454e-05
2.17228e-05
-1.54078e-05
2.43326e-05
-1.3949e-05
2.63564e-05
-1.16012e-05
2.76156e-05
-8.19305e-06
2.79354e-05
-3.57239e-06
2.71491e-05
2.35356e-06
2.5106e-05
9.54548e-06
2.16939e-05
1.76434e-05
1.69117e-05
2.57636e-05
1.09915e-05
3.20096e-05
4.67463e-06
3.32059e-05
-1.74302e-07
2.48912e-05
-1.7454e-07
6.2647e-10
-1.80312e-07
7.07611e-08
-1.87207e-07
8.99454e-08
-1.8805e-07
2.16903e-07
-0.000130332
0.00171927
-0.000258841
0.00153092
-0.00035784
0.00109327
-0.000424839
0.000719365
-0.000463546
0.000397969
-0.00047839
0.000136492
-0.000474055
-7.34754e-05
-0.000454669
-0.000238085
-0.000423804
-0.00036414
-0.000384499
-0.000457368
-0.00033934
-0.000522766
-0.000290504
-0.00056473
-0.000239797
-0.000587164
-0.000188685
-0.000593528
-0.000138321
-0.000586839
-8.95679e-05
-0.000569577
-4.30354e-05
-0.000542948
-0.000498438
3.24163e-06
-1.61662e-05
6.92805e-06
-1.81531e-05
1.08987e-05
-1.93802e-05
1.50541e-05
-2.01919e-05
1.92767e-05
-2.05355e-05
2.34181e-05
-2.02868e-05
2.72958e-05
-1.92854e-05
3.06947e-05
-1.73478e-05
3.33748e-05
-1.42813e-05
3.50849e-05
-9.90316e-06
3.55801e-05
-4.06763e-06
3.46366e-05
3.29707e-06
3.20614e-05
1.21208e-05
2.77177e-05
2.1987e-05
2.16087e-05
3.18725e-05
1.40348e-05
3.95836e-05
5.98367e-06
4.1257e-05
-1.85044e-07
3.10599e-05
-1.85384e-07
9.66501e-10
-1.91615e-07
7.69924e-08
-1.99246e-07
9.75762e-08
-1.99684e-07
2.17341e-07
-0.00011921
0.00183828
-0.000242007
0.00165372
-0.000339917
0.00119118
-0.000407059
0.000786507
-0.000446962
0.000437872
-0.000463551
0.000153082
-0.000461211
-7.58154e-05
-0.000443817
-0.000255479
-0.000414799
-0.000393159
-0.000377131
-0.000495036
-0.000333387
-0.00056651
-0.000285758
-0.00061236
-0.000236076
-0.000636846
-0.000185842
-0.000643762
-0.000136248
-0.000636434
-8.81979e-05
-0.000617626
-4.2348e-05
-0.000588798
-0.000540786
4.21319e-06
-2.03794e-05
8.88545e-06
-2.28254e-05
1.38547e-05
-2.43495e-05
1.90265e-05
-2.53637e-05
2.42836e-05
-2.57927e-05
2.94694e-05
-2.54727e-05
3.43789e-05
-2.41949e-05
3.87543e-05
-2.17233e-05
4.22886e-05
-1.78156e-05
4.46391e-05
-1.22536e-05
4.54553e-05
-4.88383e-06
4.44128e-05
4.33954e-06
4.12383e-05
1.52953e-05
3.57439e-05
2.74815e-05
2.79244e-05
3.9692e-05
1.81648e-05
4.93432e-05
7.77002e-06
5.16517e-05
-1.94187e-07
3.90241e-05
-1.94694e-07
1.47507e-09
-2.02459e-07
8.47579e-08
-2.12333e-07
1.0745e-07
-2.14156e-07
2.19164e-07
-0.000107539
0.0019456
-0.000224952
0.00177113
-0.000321956
0.00128818
-0.000389655
0.000854206
-0.000431189
0.000479406
-0.000449977
0.00017187
-0.000450017
-7.57753e-05
-0.000434896
-0.0002706
-0.000407885
-0.000420171
-0.000371901
-0.00053102
-0.000329514
-0.000608897
-0.000282945
-0.000658929
-0.000234068
-0.000685723
-0.00018443
-0.000693399
-0.000135275
-0.00068559
-8.75615e-05
-0.000665339
-4.20127e-05
-0.000634347
-0.000582798
5.45403e-06
-2.58334e-05
1.13791e-05
-2.87505e-05
1.76033e-05
-3.05736e-05
2.40328e-05
-3.17933e-05
3.05492e-05
-3.23091e-05
3.69901e-05
-3.19135e-05
4.31356e-05
-3.03404e-05
4.8697e-05
-2.72847e-05
5.33092e-05
-2.24278e-05
5.65358e-05
-1.54802e-05
5.78946e-05
-6.2426e-06
5.69085e-05
5.32563e-06
5.31603e-05
1.90435e-05
4.63487e-05
3.4293e-05
3.64139e-05
4.96269e-05
2.38159e-05
6.19411e-05
1.02477e-05
6.522e-05
-2.01141e-07
4.94729e-05
-2.01922e-07
2.25756e-09
-2.12157e-07
9.49934e-08
-2.25503e-07
1.20795e-07
-2.30902e-07
2.24564e-07
-9.69588e-05
0.00204233
-0.000210472
0.00188465
-0.000307394
0.0013851
-0.000376391
0.000923203
-0.000420065
0.00052308
-0.000441377
0.000193182
-0.000443925
-7.32271e-05
-0.000431013
-0.000283512
-0.000405776
-0.000445408
-0.00037111
-0.000565685
-0.000329621
-0.000650386
-0.000283587
-0.000704963
-0.00023495
-0.00073436
-0.000185323
-0.000743026
-0.000136012
-0.000734901
-8.8042e-05
-0.000713309
-4.22139e-05
-0.000680175
-0.000625012
6.9068e-06
-3.27402e-05
1.43138e-05
-3.61575e-05
2.20328e-05
-3.82926e-05
2.99665e-05
-3.9727e-05
3.79904e-05
-4.0333e-05
4.59329e-05
-3.9856e-05
5.35595e-05
-3.7967e-05
6.05555e-05
-3.42807e-05
6.65089e-05
-2.83812e-05
7.08999e-05
-1.98712e-05
7.31103e-05
-8.45297e-06
7.24721e-05
5.96375e-06
6.83481e-05
2.31676e-05
6.02155e-05
4.24257e-05
4.78372e-05
6.20052e-05
3.16543e-05
7.81239e-05
1.37659e-05
8.31085e-05
-2.01986e-07
6.34408e-05
-2.03099e-07
3.37372e-09
-2.19349e-07
1.11243e-07
-2.4191e-07
1.43356e-07
-2.52762e-07
2.35416e-07
-9.02346e-05
0.00213231
-0.000203047
0.00199746
-0.000301432
0.00148349
-0.000372675
0.000994446
-0.000418858
0.000569262
-0.000442659
0.000216984
-0.000447349
-6.85367e-05
-0.000436009
-0.000294853
-0.000411727
-0.00046969
-0.000377452
-0.00059996
-0.000335884
-0.000691954
-0.000289402
-0.000751445
-0.000240044
-0.000783719
-0.000189503
-0.000793567
-0.000139154
-0.00078525
-9.00866e-05
-0.000762377
-4.31748e-05
-0.000727087
-0.000668187
8.51628e-06
-4.12565e-05
1.75644e-05
-4.52057e-05
2.69507e-05
-4.76788e-05
3.65788e-05
-4.93552e-05
4.63199e-05
-5.0074e-05
5.59939e-05
-4.953e-05
6.53531e-05
-4.73262e-05
7.40616e-05
-4.29891e-05
8.16702e-05
-3.59899e-05
8.75919e-05
-2.57928e-05
9.10868e-05
-1.1948e-05
9.12886e-05
5.762e-06
8.72823e-05
2.71738e-05
7.8185e-05
5.1523e-05
6.33354e-05
7.68548e-05
4.28381e-05
9.86213e-05
1.89843e-05
0.000106962
-2.00552e-07
8.26257e-05
-1.98823e-07
1.64707e-09
-2.20043e-07
1.32463e-07
-2.53561e-07
1.76875e-07
-2.50194e-07
2.32049e-07
-9.14005e-05
0.00222346
-0.000210115
0.00211617
-0.000312106
0.00158548
-0.000386255
0.00106859
-0.000434605
0.000617612
-0.000459964
0.000242343
-0.0004655
-6.30013e-05
-0.000454207
-0.000306145
-0.000429258
-0.000494639
-0.000393753
-0.000635465
-0.000350543
-0.000735164
-0.000302145
-0.000799843
-0.000250703
-0.00083516
-0.000197993
-0.000846277
-0.000145444
-0.000837799
-9.419e-05
-0.000813631
-4.51556e-05
-0.000776121
-0.000713342
1.01335e-05
-5.139e-05
2.08384e-05
-5.59106e-05
3.19196e-05
-5.876e-05
4.32889e-05
-6.07245e-05
5.48215e-05
-6.16066e-05
6.63399e-05
-6.10483e-05
7.75975e-05
-5.85839e-05
8.82569e-05
-5.36485e-05
9.78591e-05
-4.55921e-05
0.000105786
-3.37194e-05
0.000111219
-1.73813e-05
0.000113133
3.84852e-06
0.000110305
3.00013e-05
0.000101395
6.04335e-05
8.49545e-05
9.32949e-05
5.99586e-05
0.000123617
2.77978e-05
0.000139123
-1.51679e-07
0.000110575
-1.64694e-07
1.46654e-08
-2.08088e-07
1.75856e-07
-2.90047e-07
2.58834e-07
-4.18696e-07
3.60698e-07
-0.000111954
0.002335
-0.000247017
0.00225124
-0.000353973
0.00169244
-0.000429531
0.00114415
-0.000477428
0.000665509
-0.000501362
0.000266278
-0.00050467
-5.96938e-05
-0.000490428
-0.000320388
-0.000462035
-0.000523031
-0.000422806
-0.000674695
-0.000375746
-0.000782223
-0.000323479
-0.00085211
-0.000268217
-0.000890422
-0.000211775
-0.000902719
-0.000155601
-0.000893974
-0.000100832
-0.000868399
-4.84052e-05
-0.000828548
-0.000761748
1.1549e-05
-6.2939e-05
2.36205e-05
-6.79821e-05
3.60745e-05
-7.1214e-05
4.88541e-05
-7.35041e-05
6.18594e-05
-7.46119e-05
7.49414e-05
-7.41304e-05
8.78918e-05
-7.15342e-05
0.000100423
-6.61801e-05
0.000112141
-5.73093e-05
0.000122492
-4.40708e-05
0.000130702
-2.5591e-05
0.000135714
-1.16418e-06
0.000136224
2.9492e-05
0.000130689
6.59681e-05
0.000116582
0.000107402
9.03763e-05
0.000149823
4.82408e-05
0.000181259
-6.9751e-08
0.000158886
-1.19405e-07
6.43203e-08
-1.62183e-07
2.18634e-07
-2.50024e-07
3.46675e-07
-5.17856e-07
6.2853e-07
-0.000178359
0.00251284
-0.000341437
0.00241431
-0.000448134
0.00179913
-0.000516876
0.00121289
-0.000556723
0.000705355
-0.000572701
0.000282256
-0.000568239
-6.41551e-05
-0.000546485
-0.000342142
-0.000511008
-0.000558508
-0.000465168
-0.000720536
-0.000411929
-0.000835462
-0.00035385
-0.000910189
-0.000293085
-0.000951186
-0.000231395
-0.000964409
-0.000170174
-0.000955195
-0.000110504
-0.000928069
-5.32636e-05
-0.000885788
-0.000815011
1.21965e-05
-7.51355e-05
2.47044e-05
-8.04899e-05
3.74881e-05
-8.39977e-05
5.05401e-05
-8.6556e-05
6.38064e-05
-8.78782e-05
7.72018e-05
-8.75258e-05
9.06143e-05
-8.49466e-05
0.000103902
-7.94679e-05
0.000116883
-7.02902e-05
0.000129306
-5.64941e-05
0.000140788
-3.70734e-05
0.000150662
-1.1038e-05
0.000158131
2.20234e-05
0.000163024
6.10753e-05
0.000164783
0.000105643
0.000160136
0.00015447
0.000141847
0.000199548
8.91111e-05
0.000211621
2.13783e-07
8.89617e-05
2.57434e-07
1.74982e-07
-1.12105e-07
7.16214e-07
-0.000615869
0.000616385
-0.000685155
0.00258213
-0.000673395
0.00240256
-0.000686443
0.00181218
-0.000697195
0.00122365
-0.000698508
0.000706669
-0.000686894
0.000270642
-0.000661702
-8.93469e-05
-0.000624438
-0.000379406
-0.000577088
-0.000605858
-0.00052169
-0.000775933
-0.000460285
-0.000896868
-0.000394837
-0.000975637
-0.000327143
-0.00101888
-0.000258741
-0.00103281
-0.000190884
-0.00102305
-0.000124554
-0.0009944
-6.0507e-05
-0.000949835
-0.000875518
1.00639e-05
-8.51994e-05
1.97955e-05
-9.02216e-05
2.94002e-05
-9.36024e-05
3.89421e-05
-9.60979e-05
4.84241e-05
-9.73603e-05
5.78404e-05
-9.69421e-05
6.7202e-05
-9.43083e-05
7.65604e-05
-8.88263e-05
8.60326e-05
-7.97624e-05
9.58329e-05
-6.62943e-05
0.000106307
-4.75474e-05
0.000117943
-2.26739e-05
0.000131318
8.6481e-06
0.000147306
4.50873e-05
0.000167962
8.49866e-05
0.00019598
0.000126452
0.000233709
0.000161819
0.00027166
0.000173671
0.000212179
0.000148442
9.05917e-07
0.000211448
-0.000522864
0.000524486
-0.00125861
0.00135213
-0.00109462
0.00241814
-0.000941035
0.00224897
-0.00085564
0.00172679
-0.000801468
0.00116947
-0.000759719
0.00066492
-0.000719925
0.000230847
-0.000677454
-0.000131818
-0.000630961
-0.000425899
-0.000579606
-0.000657213
-0.000523213
-0.000832326
-0.00046231
-0.000957771
-0.00039791
-0.00104004
-0.000331235
-0.00108556
-0.000263486
-0.00110056
-0.000195717
-0.00109082
-0.000128779
-0.00106134
-6.32832e-05
-0.00101533
-0.000938801
4.57244e-06
-8.97718e-05
8.15744e-06
-9.38066e-05
1.10748e-05
-9.65198e-05
1.33991e-05
-9.84222e-05
1.51421e-05
-9.91033e-05
1.63163e-05
-9.81162e-05
1.69645e-05
-9.49565e-05
1.71836e-05
-8.90453e-05
1.71496e-05
-7.97284e-05
1.71488e-05
-6.62935e-05
1.7615e-05
-4.80136e-05
1.91825e-05
-2.42414e-05
2.24019e-05
5.42868e-06
2.70618e-05
4.04273e-05
3.27223e-05
7.93262e-05
3.84369e-05
0.000120737
3.69576e-05
0.000163298
-4.38888e-07
0.000211067
-0.000144044
0.000292047
-0.000456223
0.000523627
-0.000910639
0.000978903
-0.0012002
0.00164169
-0.00105183
0.00226977
-0.000894876
0.00209202
-0.000785668
0.00161758
-0.000710284
0.00109409
-0.000654812
0.000609448
-0.000609861
0.000185896
-0.000569992
-0.000171686
-0.000531428
-0.000464463
-0.0004911
-0.000697542
-0.000447161
-0.000876264
-0.000399015
-0.00100592
-0.000346973
-0.00109208
-0.000291846
-0.00114068
-0.000234603
-0.0011578
-0.000176172
-0.00114925
-0.000117325
-0.00112018
-5.85429e-05
-0.00107411
-0.000997344
-1.91257e-06
-8.78593e-05
-5.40557e-06
-9.03136e-05
-1.00823e-05
-9.18431e-05
-1.58684e-05
-9.26361e-05
-2.27563e-05
-9.22154e-05
-3.07403e-05
-9.01322e-05
-3.97921e-05
-8.59048e-05
-4.98483e-05
-7.89891e-05
-6.08057e-05
-6.8771e-05
-7.25222e-05
-5.45769e-05
-8.48545e-05
-3.56814e-05
-9.77435e-05
-1.13524e-05
-0.000111086
1.87712e-05
-0.000125247
5.45882e-05
-0.000142179
9.62587e-05
-0.000166623
0.000145181
-0.000209661
0.000206336
-0.000293673
0.000295079
-0.000451553
0.000449927
-0.00069191
0.000763984
-0.00095225
0.00123924
-0.00106119
0.00175062
-0.000912036
0.00212062
-0.000752929
0.00193291
-0.000634755
0.0014994
-0.000552566
0.0010119
-0.000495856
0.000552738
-0.000456398
0.000146438
-0.000427915
-0.000200169
-0.000404411
-0.000487968
-0.000380802
-0.00072115
-0.000353838
-0.000903228
-0.000322051
-0.0010377
-0.000285272
-0.00112886
-0.000244079
-0.00118188
-0.000199366
-0.00120252
-0.000152052
-0.00119656
-0.000102911
-0.00116933
-5.23565e-05
-0.00112467
-0.0010497
-8.70593e-06
-7.91533e-05
-1.93206e-05
-7.96989e-05
-3.14847e-05
-7.9679e-05
-4.51547e-05
-7.89661e-05
-6.03406e-05
-7.70294e-05
-7.70577e-05
-7.34152e-05
-9.53118e-05
-6.76507e-05
-0.000115103
-5.91976e-05
-0.000136445
-4.74289e-05
-0.000159376
-3.16464e-05
-0.000184033
-1.10244e-05
-0.000210344
1.49592e-05
-0.000238245
4.66715e-05
-0.000268512
8.48557e-05
-0.00030334
0.000131086
-0.000346927
0.000188768
-0.000406595
0.000266005
-0.000492819
0.000381303
-0.000615507
0.000572616
-0.000765727
0.000914203
-0.000887309
0.00136083
-0.000886308
0.00174962
-0.000732802
0.00196711
-0.000573815
0.00177393
-0.000452119
0.00137771
-0.000368511
0.000928294
-0.000315443
0.00049967
-0.000285689
0.000116684
-0.000271941
-0.000213917
-0.000266175
-0.000493734
-0.000261387
-0.000725939
-0.000253092
-0.000911523
-0.000239076
-0.00105172
-0.000218739
-0.00114919
-0.000192473
-0.00120814
-0.000161155
-0.00123383
-0.000125736
-0.00123198
-8.70234e-05
-0.00120804
-4.54158e-05
-0.00116627
-0.00109512
-1.47008e-05
-6.44525e-05
-3.15265e-05
-6.28732e-05
-5.01396e-05
-6.10659e-05
-7.05122e-05
-5.85936e-05
-9.26604e-05
-5.48811e-05
-0.000116613
-4.94624e-05
-0.000142408
-4.18554e-05
-0.000170111
-3.14949e-05
-0.000199842
-1.7698e-05
-0.000231664
1.75021e-07
-0.000265393
2.27051e-05
-0.000300857
5.04229e-05
-0.000338349
8.41639e-05
-0.000378685
0.000125192
-0.00042318
0.000175581
-0.000473871
0.000239459
-0.000533471
0.000325604
-0.000604195
0.000452028
-0.00068438
0.0006528
-0.00075817
0.000987993
-0.000783755
0.00138641
-0.000714284
0.00168015
-0.000552341
0.00180517
-0.000392687
0.00161427
-0.000269234
0.00125425
-0.000185735
0.000844795
-0.0001368
0.000450735
-0.000116475
9.63591e-05
-0.000116758
-0.000213634
-0.000127917
-0.000482575
-0.000140999
-0.000712857
-0.000150704
-0.000901818
-0.000154154
-0.00104827
-0.000150226
-0.00115312
-0.000139023
-0.00121935
-0.000121377
-0.00125148
-9.82107e-05
-0.00125515
-7.0317e-05
-0.00123593
-3.80681e-05
-0.00119852
-0.00113318
-1.94682e-05
-4.49843e-05
-4.11098e-05
-4.12316e-05
-6.4632e-05
-3.75437e-05
-9.00168e-05
-3.32088e-05
-0.000117298
-2.75999e-05
-0.000146523
-2.02371e-05
-0.000177709
-1.06701e-05
-0.000210852
1.64833e-06
-0.000245865
1.73153e-05
-0.000282646
3.69562e-05
-0.000321151
6.12096e-05
-0.000361658
9.09305e-05
-0.000404502
0.000127008
-0.000449942
0.000170632
-0.000498156
0.000223795
-0.000549082
0.000290385
-0.000601917
0.000378439
-0.000653751
0.000503862
-0.000697106
0.000696155
-0.000712591
0.00100348
-0.000670872
0.00134469
-0.000557928
0.00156721
-0.000388542
0.00163578
-0.000228054
0.00145378
-0.000103096
0.0011293
-1.92533e-05
0.000760953
2.5469e-05
0.000406013
3.79167e-05
8.39114e-05
2.76508e-05
-0.000203368
4.57662e-06
-0.000459501
-2.29115e-05
-0.000685369
-4.84383e-05
-0.000876291
-6.80879e-05
-0.00102862
-7.99605e-05
-0.00114125
-8.36173e-05
-0.00121569
-7.98153e-05
-0.00125528
-6.92746e-05
-0.00126569
-5.26462e-05
-0.00125256
-3.02458e-05
-0.00122092
-0.00116343
-2.27357e-05
-2.22486e-05
-4.78609e-05
-1.61065e-05
-7.4852e-05
-1.05526e-05
-0.00010359
-4.47081e-06
-0.000133998
2.80863e-06
-0.00016601
1.17748e-05
-0.000199609
2.29289e-05
-0.000234791
3.68297e-05
-0.000271578
5.41023e-05
-0.00031016
7.55386e-05
-0.000350839
0.000101889
-0.000393799
0.00013389
-0.000439043
0.000172251
-0.000486268
0.000217857
-0.000534704
0.000272231
-0.000582711
0.000338392
-0.000627115
0.000422843
-0.0006618
0.000538547
-0.000676047
0.000710402
-0.000649634
0.000977065
-0.000563558
0.00125862
-0.000422025
0.00142567
-0.000246554
0.00146031
-8.41922e-05
0.00129142
4.22868e-05
0.00100282
0.000124189
0.000679051
0.000164401
0.000365801
0.000171768
7.65443e-05
0.000156267
-0.000187867
0.000126838
-0.000430072
9.05388e-05
-0.000649069
5.38204e-05
-0.000839573
2.11138e-05
-0.000995915
-5.13883e-06
-0.001115
-2.3831e-05
-0.001197
-3.45834e-05
-0.00124453
-3.75811e-05
-0.00126269
-3.31518e-05
-0.00125699
-2.1549e-05
-0.00123253
-0.00118498
-2.57147e-05
3.4661e-06
-5.27646e-05
1.09435e-05
-8.10016e-05
1.76844e-05
-0.000110517
2.50446e-05
-0.000141328
3.36193e-05
-0.000173441
4.38878e-05
-0.000206935
5.64228e-05
-0.000241971
7.18662e-05
-0.000278809
9.09399e-05
-0.000317686
0.000114417
-0.000358801
0.000143003
-0.000402184
0.000177274
-0.000447581
0.000217648
-0.000494268
0.000264543
-0.000540815
0.000318778
-0.000584525
0.000382103
-0.000620843
0.00045916
-0.000641759
0.000559464
-0.000634317
0.00070296
-0.000579283
0.00092203
-0.00046423
0.00114356
-0.000304152
0.00126559
-0.000123055
0.00127921
4.17959e-05
0.00112657
0.00016715
0.000877463
0.000246029
0.000600172
0.000284431
0.000327399
0.000290887
7.00885e-05
0.000274342
-0.000171322
0.000242517
-0.000398247
0.000201737
-0.000608289
0.000157537
-0.000795373
0.000114313
-0.00095269
7.51181e-05
-0.0010758
4.19497e-05
-0.00116383
1.633e-05
-0.00121891
-1.21678e-06
-0.00124515
-1.05852e-05
-0.00124762
-1.1375e-05
-0.00123174
-0.00119635
-2.58402e-05
2.93063e-05
-5.25614e-05
3.76647e-05
-8.01937e-05
4.53167e-05
-0.000108906
5.37569e-05
-0.000138795
6.35085e-05
-0.000169951
7.50436e-05
-0.000202473
8.89443e-05
-0.000236524
0.000105917
-0.000272336
0.000126753
-0.000310149
0.000152229
-0.000350116
0.00018297
-0.000392167
0.000219326
-0.00043585
0.000261331
-0.000480144
0.000308837
-0.00052321
0.000361843
-0.000561634
0.000420527
-0.000589853
0.000487379
-0.000599647
0.000569258
-0.000576617
0.00067993
-0.000502242
0.000847656
-0.00036847
0.00100979
-0.000196569
0.00109369
-1.03878e-05
0.00109303
0.000154553
0.000961631
0.000276826
0.00075519
0.000354971
0.000522028
0.000394727
0.000287642
0.000404035
6.07812e-05
0.000390572
-0.00015786
0.000360278
-0.000367953
0.000317888
-0.000565899
0.000267998
-0.000745483
0.000215081
-0.000899773
0.000163107
-0.00102383
0.000115257
-0.00111598
7.38692e-05
-0.00117752
4.04006e-05
-0.00121168
1.56918e-05
-0.00122291
8.2203e-07
-0.00121687
-0.00119553
-2.38016e-05
5.31079e-05
-4.89687e-05
6.28318e-05
-7.52363e-05
7.15843e-05
-0.000102561
8.10815e-05
-0.00013092
9.18674e-05
-0.00016034
0.000104464
-0.000190929
0.000119533
-0.000222885
0.000137873
-0.000256465
0.000160333
-0.000291896
0.00018766
-0.000329262
0.000220336
-0.000368351
0.000258414
-0.00040849
0.000301471
-0.000448389
0.000348736
-0.000485928
0.000399382
-0.000517306
0.000451905
-0.000536768
0.000506841
-0.000535334
0.000567825
-0.00049946
0.000644056
-0.00041108
0.000759275
-0.000265509
0.000864221
-8.5781e-05
0.000913965
0.00010127
0.000905983
0.000262357
0.000800543
0.0003824
0.000635147
0.000461642
0.000442786
0.000505255
0.000244029