/*--------------------------------*- C++ -*----------------------------------*\
| =========                 |                                                 |
| \\      /  F ield         | OpenFOAM: The Open Source CFD Toolbox           |
|  \\    /   O peration     | Version:  2.2.0                                 |
|   \\  /    A nd           | Web:      www.OpenFOAM.org                      |
|    \\/     M anipulation  |                                                 |
\*---------------------------------------------------------------------------*/
FoamFile
{
    version     2.0;
    format      ascii;
    class       volVectorField;
    location    "2000";
    object      U;
}
// * * * * * * * * * * * * * * * * * * * * * * * * * * * * * * * * * * * * * //

dimensions      [0 1 -1 0 0 0 0];

internalField   nonuniform List<vector> 
7600
(
(-0.000443237 0.000391645 1.24086e-22)
(-0.000779685 0.000156262 2.24805e-22)
(-0.000731618 -0.000146815 0)
(-0.000326925 -0.000328534 -4.46808e-22)
(0.000353213 -0.000408384 -6.18434e-22)
(0.00116448 -0.000426442 0)
(0.00206938 -0.000417833 0)
(0.00299968 -0.000380427 0)
(0.00389332 -0.000319273 8.20812e-22)
(0.00467598 -0.000245107 1.61345e-21)
(0.00528669 -0.000158723 1.07273e-21)
(0.00560037 -5.22771e-05 -1.99115e-22)
(0.0055976 6.46196e-05 3.08944e-22)
(0.00501584 0.000182341 0)
(0.00416156 0.000249685 0)
(0.00243306 0.000312416 0)
(0.00129875 0.000160117 0)
(1.9539e-06 0.000114002 0)
(-5.9766e-05 -3.72305e-08 0)
(-7.07566e-05 2.7865e-07 0)
(-8.32764e-05 4.01836e-07 0)
(-6.17526e-05 -1.9253e-05 -4.52249e-22)
(-0.029891 0.0167033 2.23119e-18)
(-0.191766 0.0100483 0)
(-0.256968 0.011982 -1.52973e-20)
(-0.325944 0.00752205 -1.19896e-20)
(-0.35958 0.00470456 5.09194e-20)
(-0.378384 0.00140361 -3.38227e-20)
(-0.379974 -0.00164076 8.01011e-21)
(-0.369214 -0.00468286 -1.18152e-20)
(-0.3477 -0.00765487 -2.93231e-20)
(-0.317827 -0.0106635 2.96727e-33)
(-0.281437 -0.0136995 1.86105e-20)
(-0.240274 -0.0167166 0)
(-0.195941 -0.0196248 0)
(-0.150028 -0.0222228 2.03862e-20)
(-0.104176 -0.0240434 -1.4004e-20)
(-0.0604922 -0.0246955 1.90571e-20)
(-0.0255078 -0.0233555 -3.4469e-34)
(0.00620658 0.009121 -2.81793e-20)
(-0.000178875 0.000765697 2.79813e-22)
(-0.000163616 0.000176752 9.88527e-23)
(9.41208e-05 -0.000309239 4.57439e-23)
(0.000501298 -0.000611812 -1.89725e-22)
(0.00106046 -0.000762006 -2.96389e-22)
(0.0017356 -0.000802437 0)
(0.00248855 -0.000775417 -1.07111e-21)
(0.0032697 -0.00069956 -1.18037e-21)
(0.00402855 -0.000585335 5.34586e-22)
(0.00469866 -0.00043964 1.14026e-21)
(0.0052133 -0.000267606 9.07866e-22)
(0.00546584 -7.43465e-05 -1.6251e-22)
(0.00542045 0.000124907 -1.76548e-22)
(0.0048805 0.000326923 3.08164e-22)
(0.00405055 0.000466963 2.7645e-22)
(0.00251406 0.000562986 0)
(0.00139276 0.000355536 0)
(-3.96047e-05 0.000248642 0)
(-5.97318e-05 -7.2291e-08 0)
(-7.07073e-05 1.01156e-06 0)
(-8.48519e-05 1.35563e-06 0)
(-6.22628e-05 -1.63785e-05 -2.51176e-22)
(-0.017623 0.0381045 6.86599e-19)
(-0.195887 0.0269695 1.06809e-19)
(-0.258602 0.0271669 1.37873e-19)
(-0.326065 0.0178851 0)
(-0.357964 0.0114649 0)
(-0.375563 0.00438242 6.95659e-21)
(-0.376354 -0.00230608 1.20774e-20)
(-0.365413 -0.00923374 3.66576e-20)
(-0.34456 -0.0161127 2.60922e-20)
(-0.31615 -0.0228699 -2.02032e-20)
(-0.282085 -0.0294132 0)
(-0.244146 -0.0356085 0)
(-0.203943 -0.0412307 -2.56849e-20)
(-0.163009 -0.0458911 -1.70075e-21)
(-0.122781 -0.0489054 -7.75001e-21)
(-0.0847681 -0.049221 7.88094e-21)
(-0.0505336 -0.044806 6.02221e-22)
(-0.025122 -0.0261135 -2.87852e-20)
(0.000132696 0.000731213 0)
(0.000332 -8.65969e-05 5.54468e-23)
(0.000672581 -0.000644975 1.72618e-23)
(0.00108419 -0.000993319 -5.05155e-23)
(0.00157618 -0.00117988 3.4317e-23)
(0.00215057 -0.00123976 2.01332e-22)
(0.00278859 -0.00120497 -4.25927e-22)
(0.0034547 -0.00109411 -5.34907e-22)
(0.00410525 -0.000919698 0)
(0.00468081 -0.000691625 3.0659e-22)
(0.00511709 -0.000417337 6.17387e-22)
(0.00532048 -0.000107147 4.77638e-23)
(0.00524361 0.000216994 -1.76453e-22)
(0.0047311 0.000537046 1.17585e-22)
(0.00393358 0.000770336 1.33945e-22)
(0.00253729 0.000896871 0)
(0.00144336 0.000628276 0)
(-4.63363e-05 0.000420161 0)
(-5.96365e-05 -6.64453e-08 0)
(-7.05839e-05 1.87592e-06 0)
(-8.47552e-05 2.56695e-06 0)
(-6.28709e-05 8.67865e-06 0)
(-0.0126742 0.0643959 -4.58488e-19)
(-0.191416 0.0510318 -9.80096e-20)
(-0.250572 0.0461367 1.14686e-19)
(-0.315891 0.0313128 0)
(-0.346259 0.0194852 0)
(-0.363177 0.00715253 0)
(-0.36392 -0.00465854 -1.61041e-20)
(-0.35359 -0.0163926 1.19765e-20)
(-0.333965 -0.0279301 3.63458e-20)
(-0.307357 -0.0391712 0)
(-0.275601 -0.0499584 0)
(-0.24038 -0.060078 0)
(-0.203142 -0.06921 -2.23296e-20)
(-0.165138 -0.0768683 -1.7699e-21)
(-0.127374 -0.0823164 4.43813e-21)
(-0.0906491 -0.0845015 -1.83641e-20)
(-0.0544065 -0.0817152 -2.02463e-20)
(-0.024383 -0.0687051 0)
(0.000345704 0.000308216 2.22749e-22)
(0.000674307 -0.000516896 2.12944e-22)
(0.00108428 -0.001065 -3.18826e-24)
(0.00152652 -0.00141992 1.28472e-24)
(0.00200094 -0.00161945 -9.80544e-25)
(0.00252288 -0.00168466 7.6989e-23)
(0.00308685 -0.00163589 -2.18306e-23)
(0.00366984 -0.00148798 -3.72456e-23)
(0.00423615 -0.00125243 1.33848e-22)
(0.00473381 -0.00093968 -8.67685e-23)
(0.00510312 -0.00055959 4.11666e-23)
(0.00526185 -0.000127777 3.07356e-23)
(0.00515448 0.000327961 6.24628e-23)
(0.00465374 0.000766143 1.92408e-22)
(0.00387849 0.00110053 2.61169e-22)
(0.00257313 0.00126028 4.17322e-23)
(0.00149415 0.000953035 -6.21574e-22)
(-4.49701e-05 0.00062197 0)
(-5.94687e-05 -5.8375e-08 0)
(-7.03538e-05 2.79486e-06 0)
(-8.42407e-05 3.87621e-06 0)
(-6.21739e-05 1.60723e-05 0)
(-0.0102628 0.0913893 -7.74061e-19)
(-0.183698 0.077614 -3.20068e-19)
(-0.239163 0.065478 0)
(-0.302243 0.0453592 0)
(-0.331192 0.0278722 4.1743e-20)
(-0.347569 0.0103281 -1.00728e-20)
(-0.348357 -0.00657592 -1.96912e-20)
(-0.338619 -0.0233011 -1.96297e-20)
(-0.320074 -0.0396805 0)
(-0.294988 -0.0555534 -2.1619e-20)
(-0.265107 -0.0707167 4.68089e-34)
(-0.23199 -0.0849053 4.20202e-20)
(-0.19692 -0.097759 2.0627e-20)
(-0.160931 -0.108785 1.85223e-20)
(-0.124771 -0.117321 1.89311e-20)
(-0.0890239 -0.122464 -2.07755e-20)
(-0.0527515 -0.122944 -2.73214e-20)
(-0.0224206 -0.115439 -1.44701e-20)
(0.000463101 -0.000464827 3.28688e-22)
(0.000891212 -0.00114372 3.45626e-22)
(0.00137885 -0.00160241 -7.04339e-23)
(0.00187485 -0.00191132 -7.91673e-24)
(0.0023688 -0.00208723 -1.45035e-37)
(0.00287868 -0.00213517 -1.52313e-23)
(0.00340584 -0.00206105 -2.00855e-23)
(0.00393605 -0.00187121 -5.81266e-23)
(0.0044411 -0.00157266 -5.00488e-24)
(0.00487643 -0.00117437 -5.52891e-23)
(0.00518795 -0.000687823 -4.72251e-23)
(0.00530145 -0.000133838 0)
(0.00516348 0.000457299 3.78925e-23)
(0.0046629 0.00101593 9.87499e-23)
(0.00389327 0.00145132 1.17978e-22)
(0.00263776 0.00164869 6.8594e-23)
(0.00155598 0.00131848 -4.27911e-22)
(-3.9973e-05 0.000853501 0)
(-5.92055e-05 -4.92964e-08 0)
(-7.00011e-05 3.7776e-06 0)
(-8.343e-05 5.20708e-06 0)
(-6.14019e-05 2.06901e-05 -1.65745e-22)
(-0.00885698 0.119262 -1.58098e-19)
(-0.173811 0.105888 -1.57683e-19)
(-0.225537 0.0858196 0)
(-0.286116 0.0602947 0)
(-0.313565 0.0367826 4.71364e-20)
(-0.329313 0.0136798 -7.12618e-21)
(-0.330043 -0.00872729 0)
(-0.320761 -0.030715 5.5886e-20)
(-0.303146 -0.0521529 7.0047e-20)
(-0.279387 -0.0728307 -2.35679e-20)
(-0.251146 -0.0925145 -4.29423e-34)
(-0.219875 -0.110918 4.54546e-20)
(-0.18674 -0.127689 2.2457e-20)
(-0.152654 -0.142389 -4.23589e-20)
(-0.118247 -0.154474 -3.94559e-20)
(-0.0840821 -0.16321 0)
(-0.0492922 -0.167437 -3.83955e-21)
(-0.0202312 -0.163538 -1.56749e-20)
(0.000516712 -0.00145085 4.13911e-22)
(0.0010223 -0.00196498 4.98186e-22)
(0.00159119 -0.0022924 -1.012e-23)
(0.0021561 -0.00251204 -2.10793e-23)
(0.00269766 -0.00262615 2.67955e-23)
(0.00322939 -0.00262643 -2.75881e-23)
(0.00375396 -0.00250553 -2.73087e-23)
(0.00426158 -0.00225959 -3.97506e-25)
(0.00472947 -0.00188874 8.6603e-26)
(0.00511946 -0.00139842 0)
(0.00538312 -0.000800298 0)
(0.00545262 -0.000118821 0)
(0.00528076 0.000606517 0)
(0.00476672 0.00129223 3.07578e-23)
(0.00398396 0.00183275 1.19533e-22)
(0.00274063 0.00207375 0)
(0.00163464 0.00173125 0)
(-3.2359e-05 0.00112139 0)
(-5.88266e-05 -3.89008e-08 0)
(-6.94965e-05 4.79937e-06 0)
(-8.23818e-05 6.58253e-06 0)
(-6.03863e-05 2.49383e-05 -1.7984e-22)
(-0.00790037 0.148006 1.87202e-19)
(-0.162308 0.135262 0)
(-0.210189 0.107077 2.14954e-19)
(-0.26791 0.0759487 1.01689e-19)
(-0.293716 0.0461402 2.72882e-20)
(-0.30868 0.0171871 -2.00718e-21)
(-0.309262 -0.0109821 0)
(-0.300389 -0.0384716 5.73721e-20)
(-0.283677 -0.0651619 7.21149e-20)
(-0.261227 -0.0908107 3.1864e-20)
(-0.234615 -0.115168 8.7623e-34)
(-0.205199 -0.137944 -3.01223e-20)
(-0.174059 -0.15881 2.96176e-20)
(-0.142033 -0.177385 -1.44211e-20)
(-0.109707 -0.193222 -5.24273e-20)
(-0.0776734 -0.205692 -6.70191e-21)
(-0.0452404 -0.213579 0)
(-0.0181181 -0.21221 0)
(0.000559687 -0.00265983 5.08225e-22)
(0.00111111 -0.00299276 5.07609e-22)
(0.0017573 -0.00316402 8.81436e-23)
(0.00239717 -0.00326054 0)
(0.003005 -0.00327687 5.06765e-23)
(0.00358569 -0.00319569 1.63403e-23)
(0.00413841 -0.00299945 5.38973e-23)
(0.00465317 -0.00267469 9.66835e-23)
(0.00510936 -0.00221395 7.37913e-23)
(0.00547309 -0.00161794 7.28737e-23)
(0.00570047 -0.000897282 4.52205e-23)
(0.00573026 -7.97499e-05 3.58744e-23)
(0.00551891 0.000787557 7.41126e-23)
(0.00497478 0.00160844 -4.86978e-23)
(0.00415826 0.00225981 5.19794e-23)
(0.00289086 0.00255219 5.64924e-23)
(0.00173525 0.002204 0)
(-2.23338e-05 0.00143513 0)
(-5.83054e-05 -2.67662e-08 -1.50223e-25)
(-6.88136e-05 5.8552e-06 2.14642e-23)
(-8.09928e-05 7.93418e-06 -2.90846e-23)
(-5.8994e-05 2.9558e-05 -2.84222e-22)
(-0.00707666 0.177416 -1.49082e-19)
(-0.149578 0.165284 -5.28963e-20)
(-0.193516 0.129141 3.15981e-19)
(-0.247996 0.0922027 1.80013e-19)
(-0.27204 0.0558771 8.91567e-20)
(-0.2861 0.020788 -5.27769e-20)
(-0.286528 -0.0133994 -8.45816e-20)
(-0.27811 -0.0466089 -6.49576e-20)
(-0.262384 -0.0787268 4.04416e-20)
(-0.241338 -0.109492 7.3005e-20)
(-0.216457 -0.138646 3.66576e-20)
(-0.189009 -0.165903 3.86905e-20)
(-0.160003 -0.190955 1.00124e-19)
(-0.13023 -0.213472 6.5148e-20)
(-0.100256 -0.233066 -1.07315e-20)
(-0.0707018 -0.249161 -5.20988e-21)
(-0.0410242 -0.260432 0)
(-0.0162042 -0.260943 0)
(0.000585036 -0.00407993 6.0377e-22)
(0.00117493 -0.0042382 2.4043e-22)
(0.00189511 -0.00424417 -7.01768e-23)
(0.00261619 -0.00419486 0)
(0.00330587 -0.00408228 1.94819e-23)
(0.00395913 -0.00388491 4.82171e-23)
(0.00456842 -0.00357911 -6.25057e-24)
(0.00511962 -0.00314439 -6.80766e-24)
(0.00559075 -0.00256684 5.85069e-23)
(0.00594925 -0.00184249 1.08203e-22)
(0.00615388 -0.000980495 1.94262e-22)
(0.00614894 -1.10814e-05 1.15448e-22)
(0.00589244 0.00101162 7.3751e-23)
(0.00530143 0.00197933 0)
(0.00442716 0.0027514 2.98241e-22)
(0.00309904 0.00310492 3.36057e-22)
(0.00186365 0.00275363 0)
(-9.81177e-06 0.00180687 0)
(-5.76137e-05 -1.25485e-08 -1.29488e-25)
(-6.79293e-05 6.90422e-06 2.53099e-23)
(-7.92087e-05 9.20577e-06 -3.37457e-23)
(-5.75157e-05 3.31722e-05 -3.08461e-22)
(-0.00622954 0.207111 -4.7225e-19)
(-0.135885 0.195569 -2.40122e-19)
(-0.175915 0.151848 9.64021e-20)
(-0.2268 0.108919 7.89261e-20)
(-0.249034 0.0659207 1.771e-19)
(-0.262132 0.0244608 -5.36024e-20)
(-0.262479 -0.0159376 -8.97171e-20)
(-0.254631 -0.0550317 -6.5747e-20)
(-0.24003 -0.0927078 4.37477e-20)
(-0.220529 -0.128695 4.07883e-20)
(-0.197513 -0.16273 -4.00734e-21)
(-0.172165 -0.194527 -7.63786e-21)
(-0.145429 -0.223793 3.16844e-20)
(-0.118057 -0.250224 -3.61305e-21)
(-0.0906009 -0.273464 -4.82704e-20)
(-0.0636833 -0.292962 -3.56325e-21)
(-0.0368754 -0.307307 0)
(-0.0144524 -0.309346 0)
(0.000585905 -0.00570454 5.63343e-23)
(0.00121992 -0.00572846 2.76883e-22)
(0.00201405 -0.00557335 0)
(0.00282554 -0.00536361 0)
(0.00361364 -0.00509462 -1.83676e-24)
(0.00436279 -0.00474526 -3.90752e-23)
(0.00505662 -0.00429012 -1.21079e-22)
(0.00567387 -0.00370535 7.3342e-24)
(0.00618773 -0.00297318 0)
(0.00656377 -0.00208662 4.93404e-23)
(0.00676079 -0.00105392 1.92278e-22)
(0.00672685 9.25725e-05 7.48647e-23)
(0.00641996 0.00129186 -1.54056e-22)
(0.00576482 0.0024252 0)
(0.00480534 0.00333269 0)
(0.00337801 0.00375932 0)
(0.00202705 0.00340326 0)
(5.42109e-06 0.00225267 1.48815e-21)
(-5.67247e-05 4.39147e-09 2.07946e-22)
(-6.68253e-05 7.92784e-06 0)
(-7.71174e-05 1.04068e-05 0)
(-5.60891e-05 3.54072e-05 0)
(-0.00536573 0.236603 -3.18856e-19)
(-0.12153 0.225749 -2.11353e-19)
(-0.157813 0.175006 0)
(-0.204823 0.125955 0)
(-0.225279 0.0762096 2.12659e-19)
(-0.237425 0.0282172 2.63812e-20)
(-0.237817 -0.0185146 0)
(-0.230681 -0.0636 9.22806e-20)
(-0.217354 -0.106919 9.36648e-20)
(-0.199535 -0.148197 0)
(-0.178508 -0.18716 4.53576e-21)
(-0.155365 -0.223516 -3.67387e-20)
(-0.130989 -0.256975 -3.90574e-20)
(-0.106094 -0.287239 -3.78926e-20)
(-0.0812095 -0.313964 -4.59184e-20)
(-0.0569351 -0.336619 1.4818e-21)
(-0.032934 -0.353756 3.68437e-20)
(-0.0128535 -0.3571 6.81149e-20)
(0.000580716 -0.00752718 5.75394e-23)
(0.00125804 -0.00749588 1.02173e-21)
(0.00212912 -0.00720335 3.56276e-22)
(0.00304179 -0.00682897 0)
(0.00394583 -0.00638011 0)
(0.00481464 -0.00584146 7.31595e-24)
(0.00562133 -0.00519072 -4.57343e-23)
(0.00633489 -0.00440533 -1.07953e-23)
(0.00692047 -0.00346772 -5.46754e-23)
(0.00733836 -0.00237092 -2.31646e-24)
(0.00754439 -0.00112427 2.4887e-22)
(0.00748778 0.000237225 2.33195e-22)
(0.00712538 0.0016458 0)
(0.00638771 0.00297245 0)
(0.00531212 0.00403692 0)
(0.00374365 0.00455166 0)
(0.00223454 0.00418464 0)
(2.37243e-05 0.00279398 2.1402e-21)
(-5.56059e-05 2.50521e-08 2.25073e-22)
(-6.54727e-05 8.89263e-06 0)
(-7.4787e-05 1.15171e-05 0)
(-5.4669e-05 3.67681e-05 0)
(-0.00449694 0.265423 0)
(-0.106871 0.255444 0)
(-0.13968 0.198409 0)
(-0.182632 0.143186 0)
(-0.201417 0.086707 9.66695e-20)
(-0.212673 0.0321099 1.78707e-20)
(-0.213257 -0.0210007 0)
(-0.206972 -0.0721246 9.41776e-20)
(-0.195047 -0.121128 3.02108e-20)
(-0.179014 -0.167727 -5.79189e-20)
(-0.160053 -0.211635 -5.01368e-21)
(-0.139168 -0.252543 -5.40693e-20)
(-0.117179 -0.290148 -4.6499e-20)
(-0.0947535 -0.324146 0)
(-0.0723926 -0.354199 0)
(-0.0506581 -0.379794 8.09736e-23)
(-0.0292934 -0.399486 3.08999e-20)
(-0.0114118 -0.403984 6.39339e-20)
(0.000586803 -0.00957716 8.9062e-22)
(0.00131608 -0.00958781 1.60528e-21)
(0.00227127 -0.00919853 -8.70085e-22)
(0.00329654 -0.00866705 -7.80851e-22)
(0.00433248 -0.00802029 3.77344e-22)
(0.00534262 -0.00725402 1.69206e-22)
(0.00628891 -0.00635441 -3.39966e-23)
(0.00712853 -0.00530575 -2.15309e-22)
(0.00781547 -0.00409617 2.46762e-23)
(0.00830096 -0.00272349 5.71169e-23)
(0.00853418 -0.00120171 4.32476e-22)
(0.00846227 0.000429487 -3.95903e-23)
(0.00803905 0.0020951 -3.31128e-22)
(0.00719882 0.00365544 0)
(0.00597245 0.00490798 -9.31324e-23)
(0.00421589 0.00553009 -8.38185e-22)
(0.00249779 0.00514123 -1.03506e-21)
(4.56975e-05 0.00345967 -1.46569e-21)
(-5.42312e-05 5.12485e-08 1.021e-25)
(-6.38491e-05 9.83164e-06 0)
(-7.22711e-05 1.2614e-05 0)
(-5.32348e-05 3.74828e-05 -5.2223e-22)
(-0.00363898 0.293065 3.30965e-19)
(-0.0923158 0.28434 0)
(-0.122024 0.221862 0)
(-0.16084 0.160505 0)
(-0.17812 0.0974058 0)
(-0.188586 0.0362274 0)
(-0.189502 -0.0232335 -9.8848e-20)
(-0.184179 -0.0803887 -8.21518e-20)
(-0.17374 -0.135077 -6.45238e-20)
(-0.159545 -0.187005 -5.74767e-20)
(-0.142667 -0.235855 -5.20652e-20)
(-0.124023 -0.281296 -9.55478e-20)
(-0.104368 -0.323001 -4.44429e-20)
(-0.0843214 -0.360651 0)
(-0.0643505 -0.393907 0)
(-0.0449751 -0.422279 0)
(-0.0260116 -0.444349 0)
(-0.0101318 -0.449888 0)
(0.000627215 -0.0119631 -9.64932e-22)
(0.00143219 -0.012092 9.34584e-22)
(0.00248813 -0.0116437 -1.24748e-21)
(0.00363884 -0.0109661 -1.16057e-21)
(0.00481852 -0.0101073 1.114e-21)
(0.00598516 -0.00907547 5.88779e-22)
(0.00709164 -0.00786853 -9.31734e-23)
(0.00808321 -0.00648248 -3.75652e-22)
(0.00890027 -0.00491726 0)
(0.00948075 -0.00318206 0)
(0.00976214 -0.00130138 0)
(0.00968488 0.000676295 -6.59326e-22)
(0.00919665 0.00266694 -5.45793e-22)
(0.00823294 0.00451865 0)
(0.00681769 0.00600364 -1.512e-22)
(0.00481989 0.00675875 -1.26668e-21)
(0.00283221 0.00633252 -1.67301e-21)
(7.24227e-05 0.00428905 -2.27623e-21)
(-5.255e-05 8.6028e-08 7.06628e-26)
(-6.1897e-05 1.06943e-05 0)
(-6.96624e-05 1.36097e-05 0)
(-5.18196e-05 3.77324e-05 -5.61819e-22)
(-0.00282603 0.319063 2.99404e-20)
(-0.0783034 0.312206 -2.7483e-19)
(-0.105346 0.245189 0)
(-0.140087 0.177846 0)
(-0.156069 0.108332 5.92044e-20)
(-0.16587 0.0406876 1.79055e-20)
(-0.167231 -0.025031 -1.00947e-19)
(-0.16294 -0.0881669 -8.23989e-20)
(-0.154008 -0.148518 0)
(-0.141631 -0.205765 -2.75727e-20)
(-0.126777 -0.259555 -2.68337e-20)
(-0.110278 -0.30952 0)
(-0.0928261 -0.355301 0)
(-0.0749915 -0.396559 0)
(-0.0572088 -0.432949 0)
(-0.0399577 -0.464 -5.4952e-20)
(-0.0231222 -0.488326 -1.33576e-20)
(-0.00901589 -0.494817 8.53309e-20)
(0.000716155 -0.0149096 -4.72949e-22)
(0.00163233 -0.0151672 2.32057e-21)
(0.00281833 -0.0146606 -9.44829e-23)
(0.00411239 -0.0138297 7.08922e-36)
(0.00544597 -0.0127379 1.51114e-21)
(0.00677739 -0.0114016 -3.48156e-22)
(0.00805564 -0.00982752 -8.00289e-22)
(0.0092174 -0.00802356 -7.00251e-22)
(0.0101899 -0.00600489 -7.03713e-22)
(0.0108944 -0.00379861 3.05965e-22)
(0.0112506 -0.00144802 3.87456e-22)
(0.0111848 0.00098179 1.14859e-21)
(0.0106333 0.00339303 1.49546e-21)
(0.00952827 0.0056179 0)
(0.00788531 0.00739877 -2.45434e-22)
(0.00558745 0.00832272 5.20283e-22)
(0.00325858 0.00783982 3.13197e-21)
(0.00010571 0.00533642 4.22422e-21)
(-5.05429e-05 1.34575e-07 0)
(-5.9589e-05 1.16893e-05 0)
(-6.6986e-05 1.48545e-05 0)
(-5.03678e-05 3.77844e-05 0)
(-0.00209801 0.343037 -2.74335e-19)
(-0.0652914 0.338876 -2.91108e-19)
(-0.0901329 0.268276 0)
(-0.121021 0.195199 0)
(-0.135936 0.119554 1.90119e-19)
(-0.145209 0.0456316 6.81153e-20)
(-0.147088 -0.0262081 0)
(-0.143839 -0.0952512 0)
(-0.136365 -0.161238 0)
(-0.125707 -0.223805 4.79691e-20)
(-0.112737 -0.282551 4.02702e-20)
(-0.0982056 -0.33706 0)
(-0.0827489 -0.386935 0)
(-0.0668932 -0.43181 0)
(-0.0510436 -0.471326 4.69586e-20)
(-0.0356451 -0.505021 -1.99361e-20)
(-0.0206428 -0.531538 -5.67183e-20)
(-0.00806447 -0.538906 8.02607e-20)
(0.000846775 -0.0187195 3.13469e-21)
(0.00190775 -0.0190437 4.12672e-21)
(0.00325835 -0.018423 -6.61257e-22)
(0.00471945 -0.0173914 -4.43325e-36)
(0.00622113 -0.0160213 1.16986e-21)
(0.00772518 -0.0143302 -1.39549e-21)
(0.00918174 -0.0123261 -1.61749e-21)
(0.0105245 -0.0100225 -1.26717e-21)
(0.0116717 -0.00744633 -6.10884e-22)
(0.0125291 -0.00464389 1.1597e-21)
(0.0129942 -0.00168456 4.75963e-22)
(0.0129696 0.00133845 8.85126e-22)
(0.0123712 0.00430311 2.36044e-21)
(0.0111194 0.00701763 1.59307e-21)
(0.00921695 0.00918663 -5.27831e-36)
(0.00655869 0.010333 5.70786e-36)
(0.00380563 0.00977387 4.71825e-21)
(0.000148598 0.00667798 6.35525e-21)
(-4.80651e-05 2.05632e-07 0)
(-5.67334e-05 1.26039e-05 0)
(-6.44024e-05 1.59189e-05 0)
(-4.90249e-05 3.79098e-05 0)
(-0.00149469 0.364763 -2.60756e-19)
(-0.0537644 0.364325 -3.00225e-19)
(-0.0768872 0.291101 2.99915e-19)
(-0.104305 0.212625 2.17731e-19)
(-0.118388 0.131174 1.03593e-19)
(-0.127265 0.0512043 8.11864e-20)
(-0.129676 -0.026606 6.7797e-20)
(-0.127413 -0.101488 0)
(-0.121263 -0.173105 0)
(-0.11214 -0.241028 6.83549e-20)
(-0.100827 -0.304787 5.96044e-20)
(-0.0880095 -0.36391 0)
(-0.0742741 -0.41795 0)
(-0.0601103 -0.466506 2.44606e-20)
(-0.045899 -0.509201 9.06982e-20)
(-0.0320565 -0.545568 8.05086e-20)
(-0.0185816 -0.574259 3.86108e-20)
(-0.0072777 -0.582435 6.50799e-20)
(0.000998896 -0.0236956 3.9566e-21)
(0.00222416 -0.0239828 5.28668e-21)
(0.0037646 -0.0231484 2.31022e-21)
(0.00541421 -0.0218287 -2.49513e-36)
(0.00710077 -0.0201018 -3.02697e-36)
(0.00878901 -0.0179815 1.01917e-21)
(0.0104319 -0.015471 0)
(0.0119639 -0.0125811 0)
(0.0133002 -0.00934156 1.20445e-21)
(0.0143358 -0.00581071 1.36205e-21)
(0.0149482 -0.00208323 1.71737e-21)
(0.0150097 0.00171028 -1.39303e-21)
(0.0144049 0.00540787 -1.61074e-21)
(0.0130277 0.0087783 2.39166e-21)
(0.0108557 0.0114736 5.88282e-22)
(0.00778552 0.0129301 6.88531e-21)
(0.00451518 0.0122855 8.64471e-21)
(0.00020546 0.00842311 0)
(-4.51621e-05 3.13701e-07 0)
(-5.33307e-05 1.43121e-05 0)
(-6.16717e-05 1.82568e-05 0)
(-4.75101e-05 3.84508e-05 0)
(-0.00105333 0.384282 -2.46795e-19)
(-0.0442667 0.388748 -7.50932e-19)
(-0.0661611 0.313793 -2.4387e-20)
(-0.090627 0.230293 -4.17878e-20)
(-0.104089 0.143352 -2.41483e-19)
(-0.112672 0.0575547 3.02357e-20)
(-0.115556 -0.0261103 6.73825e-20)
(-0.114132 -0.106816 0)
(-0.109082 -0.184118 0)
(-0.10122 -0.257494 0)
(-0.0912582 -0.326387 -4.13145e-20)
(-0.0798317 -0.390253 -3.45179e-20)
(-0.0674882 -0.448589 0)
(-0.0546884 -0.500949 2.24603e-20)
(-0.041794 -0.546929 4.59455e-20)
(-0.029197 -0.586048 3.70554e-20)
(-0.0169407 -0.616938 4.92123e-20)
(-0.00665624 -0.625863 6.50314e-20)
(0.00115283 -0.0300861 4.98043e-21)
(0.00254241 -0.0302199 4.63743e-21)
(0.00427896 -0.0290526 1.51327e-21)
(0.00612559 -0.0273344 5.10913e-36)
(0.00800716 -0.0251476 3.37115e-36)
(0.0098896 -0.0225001 2.79211e-21)
(0.0117282 -0.0193874 1.59513e-21)
(0.0134592 -0.0158121 0)
(0.014998 -0.0117979 0)
(0.016235 -0.00740445 2.75152e-22)
(0.0170345 -0.00274154 3.08208e-21)
(0.0172397 0.00202432 1.24806e-21)
(0.0166976 0.00667908 -1.92585e-21)
(0.015258 0.0109333 0)
(0.0128497 0.014363 0)
(0.00934374 0.016281 1.12783e-20)
(0.00545636 0.0155785 1.29973e-20)
(0.000283696 0.0107294 0)
(-4.12007e-05 4.80726e-07 0)
(-4.85492e-05 1.55393e-05 0)
(-5.93961e-05 1.96659e-05 0)
(-4.65327e-05 3.99008e-05 0)
(-0.00084829 0.401948 0)
(-0.0374846 0.412529 -4.68136e-19)
(-0.0586465 0.336564 -3.38428e-19)
(-0.0807553 0.248377 -2.70638e-19)
(-0.0937374 0.156177 -2.17037e-19)
(-0.102045 0.0646993 0)
(-0.105237 -0.0247829 -8.236e-20)
(-0.104397 -0.111377 -1.26166e-19)
(-0.100118 -0.194502 -5.06871e-20)
(-0.0931526 -0.273506 -1.16837e-20)
(-0.0841622 -0.347724 -4.13662e-20)
(-0.0737466 -0.416523 -2.38617e-20)
(-0.0624253 -0.479336 -2.78774e-20)
(-0.0506363 -0.535669 -5.11289e-20)
(-0.0387246 -0.585084 -2.44914e-20)
(-0.0270595 -0.627074 -4.22533e-20)
(-0.0157178 -0.66023 -1.10436e-19)
(-0.00620216 -0.669858 -4.08234e-20)
(0.00129544 -0.0380956 -3.00606e-21)
(0.00283247 -0.037956 -1.58238e-22)
(0.00474861 -0.0363327 0)
(0.00677861 -0.0341005 0)
(0.00884603 -0.0313427 0)
(0.0109178 -0.0280601 1.73564e-21)
(0.0129516 -0.0242383 1.92261e-21)
(0.0148865 -0.0198684 0)
(0.0166399 -0.0149627 0)
(0.0181026 -0.00957206 2.76404e-22)
(0.0191335 -0.00380727 1.67863e-21)
(0.0195549 0.00214234 1.66227e-21)
(0.0191787 0.00801265 -5.92213e-21)
(0.0178004 0.0134466 -6.9778e-21)
(0.0152665 0.01792 0)
(0.0113677 0.0205717 0)
(0.00676695 0.0199464 0)
(0.000396186 0.0138567 0)
(-3.68615e-05 7.01596e-07 0)
(-4.26959e-05 2.02801e-05 0)
(-5.56542e-05 2.66722e-05 0)
(-4.46973e-05 4.214e-05 0)
(-0.000822176 0.419196 -2.02665e-19)
(-0.0344233 0.436967 -2.23786e-19)
(-0.0553224 0.360139 0)
(-0.075611 0.267352 0)
(-0.0880836 0.16989 1.39269e-19)
(-0.0959559 0.0726936 1.15061e-19)
(-0.099122 -0.0227483 8.82982e-21)
(-0.0984657 -0.115478 -5.12287e-20)
(-0.0945174 -0.204708 -9.10617e-20)
(-0.0879998 -0.289625 -6.22133e-20)
(-0.0795453 -0.369437 -5.36368e-20)
(-0.0697281 -0.443416 -3.35925e-20)
(-0.0590448 -0.510928 -2.69371e-20)
(-0.0479118 -0.571433 -4.91835e-20)
(-0.0366553 -0.624458 2.44629e-21)
(-0.0256207 -0.66947 2.27278e-21)
(-0.0149034 -0.704995 -8.90545e-20)
(-0.00591804 -0.715328 -3.98776e-20)
(0.0014101 -0.0478112 1.1452e-20)
(0.00304778 -0.0472683 1.42866e-20)
(0.00509875 -0.0450676 4.9353e-21)
(0.00726759 -0.0422125 0)
(0.00948046 -0.0387809 0)
(0.0117067 -0.0347639 0)
(0.0139089 -0.0301352 0)
(0.0160319 -0.0248723 0)
(0.0180002 -0.0189713 0)
(0.0197117 -0.0124662 4.42053e-22)
(0.0210302 -0.00545492 2.18723e-21)
(0.0217736 0.00186891 -1.99884e-20)
(0.0217245 0.00920351 -3.47351e-20)
(0.0206317 0.0161443 -9.77863e-21)
(0.0182337 0.0220856 0)
(0.0141658 0.0259563 0)
(0.00882875 0.0258439 0)
(0.000629716 0.0180137 0)
(-2.8396e-05 -3.11365e-07 0)
(-3.09912e-05 2.03286e-05 0)
(-5.4647e-05 2.7941e-05 0)
(-4.80284e-05 3.77712e-05 -9.43331e-22)
(-0.00169048 0.436304 -2.21196e-19)
(-0.0370173 0.462682 -2.1791e-19)
(-0.0581625 0.384029 0)
(-0.0766621 0.286547 0)
(-0.0881597 0.183659 1.47752e-19)
(-0.0950552 0.0805856 1.21149e-19)
(-0.097581 -0.0210239 9.83719e-20)
(-0.0964842 -0.120148 8.01835e-20)
(-0.0922811 -0.215772 -4.54912e-20)
(-0.0856799 -0.306884 5.13349e-20)
(-0.0772881 -0.39255 4.74606e-20)
(-0.0676498 -0.471943 -3.21316e-20)
(-0.057231 -0.544364 0)
(-0.0464191 -0.609231 0)
(-0.0355137 -0.66605 2.60453e-20)
(-0.0248318 -0.714261 2.29933e-20)
(-0.0144691 -0.752317 -2.10687e-20)
(-0.00580763 -0.76347 0)
(0.00148153 -0.0592589 2.09312e-20)
(0.00313451 -0.058153 1.33136e-20)
(0.00522686 -0.0552551 -4.45444e-22)
(0.00743231 -0.0516817 4.23038e-21)
(0.0096873 -0.0474963 4.30611e-21)
(0.0119672 -0.0426765 0)
(0.0142441 -0.0371832 2.26115e-22)
(0.0164756 -0.0309788 -1.64138e-22)
(0.0186035 -0.0240399 0)
(0.0205473 -0.016376 9.79337e-22)
(0.0221946 -0.00805612 1.21794e-21)
(0.0233886 0.000747132 -2.64061e-20)
(0.0239059 0.00975157 -3.37203e-20)
(0.0235231 0.0185184 0)
(0.0218976 0.0264468 0)
(0.0185122 0.0324123 0)
(0.0126163 0.0339037 0)
(0.00182643 0.025419 0)
(-2.29335e-05 6.63767e-06 0)
(-1.50811e-05 3.9399e-05 0)
(-4.74017e-05 5.95988e-05 0)
(-3.14866e-05 9.86304e-05 -6.78325e-22)
(-0.00584405 0.467289 1.08941e-19)
(-0.0477897 0.498455 7.32573e-20)
(-0.07029 0.412176 0)
(-0.0852002 0.307357 0)
(-0.0944465 0.197729 0)
(-0.0992368 0.0880485 -3.26359e-19)
(-0.100166 -0.0203161 -2.6288e-19)
(-0.0978299 -0.126409 0)
(-0.0927422 -0.228877 0)
(-0.0855685 -0.326525 1.11839e-19)
(-0.0768548 -0.418317 9.50045e-20)
(-0.0670819 -0.503356 -6.99127e-22)
(-0.0566608 -0.580897 0)
(-0.0459325 -0.650333 0)
(-0.0351581 -0.71116 1.23947e-20)
(-0.0246195 -0.762811 -1.68618e-20)
(-0.0143895 -0.803671 -6.28084e-20)
(-0.00588921 -0.815988 0)
(0.00145934 -0.0718569 9.58643e-21)
(0.00297909 -0.0699837 5.30918e-21)
(0.00493545 -0.0662802 -2.24182e-21)
(0.0069785 -0.0619234 2.17045e-21)
(0.00906122 -0.0569482 2.42923e-21)
(0.0111689 -0.0513172 0)
(0.0132883 -0.0449807 -3.71386e-22)
(0.0153997 -0.0378898 -8.9284e-22)
(0.0174783 -0.0300047 0)
(0.0194915 -0.0213082 0)
(0.021392 -0.0118269 0)
(0.0231086 -0.00168927 0)
(0.0244926 0.00880543 0)
(0.0254621 0.0192347 0)
(0.0260108 0.0293389 0)
(0.0260721 0.0381732 0)
(0.0236437 0.0435087 0)
(0.0242887 0.0377102 0)
(2.37002e-05 1.5395e-05 0)
(4.56446e-05 2.28936e-05 0)
(2.99518e-05 3.508e-05 0)
(-6.19346e-05 0.000106402 0)
(-0.155504 0.495697 0)
(-0.0976634 0.521017 0)
(-0.108964 0.429939 4.21978e-19)
(-0.109349 0.320117 3.16111e-19)
(-0.110673 0.205348 0)
(-0.109895 0.0899822 -3.62381e-19)
(-0.107005 -0.024649 -2.91264e-19)
(-0.102009 -0.137301 -1.20312e-19)
(-0.0952941 -0.246257 -9.27937e-20)
(-0.0871421 -0.350188 7.358e-20)
(-0.0778762 -0.447972 5.98882e-20)
(-0.0678144 -0.538632 0)
(-0.0572568 -0.621357 0)
(-0.0464689 -0.695509 0)
(-0.035659 -0.760573 2.88966e-20)
(-0.0250702 -0.815981 4.55149e-21)
(-0.0147354 -0.860082 -7.37574e-20)
(-0.00620472 -0.874269 0)
(0.00123266 -0.0840262 7.40339e-21)
(0.00241737 -0.0810831 5.94425e-21)
(0.00391203 -0.0764623 0)
(0.00542497 -0.0712872 0)
(0.00692845 -0.0655456 0)
(0.00841931 -0.0591884 0)
(0.00989921 -0.0521675 0)
(0.0113725 -0.0444407 0)
(0.0128516 -0.0359769 0)
(0.0143618 -0.0267625 4.57012e-21)
(0.0159479 -0.0168107 5.24696e-21)
(0.0176763 -0.00616532 0)
(0.019656 0.00486206 0)
(0.0219142 0.0153246 0)
(0.0247482 0.0247962 0)
(0.0286409 0.0333157 0)
(0.033554 0.0394602 0)
(0.0421135 0.0386671 0)
(0.0408421 0.0247662 0)
(0.0313043 0.0017483 0)
(-0.0323929 0.0171601 0)
(-0.155289 0.211404 0)
(-0.204551 0.489606 3.59987e-18)
(-0.152874 0.498463 1.42152e-18)
(-0.142163 0.418627 3.03714e-19)
(-0.130049 0.312547 2.70235e-19)
(-0.123234 0.198005 0)
(-0.116982 0.0804152 0)
(-0.110572 -0.0378778 0)
(-0.10353 -0.154726 -1.23174e-19)
(-0.0958644 -0.268392 -9.46926e-20)
(-0.0873816 -0.377433 7.42775e-20)
(-0.0781196 -0.480534 5.95281e-20)
(-0.0682075 -0.576517 0)
(-0.0578302 -0.664411 0)
(-0.0471851 -0.743483 0)
(-0.0364403 -0.813175 1.14987e-20)
(-0.0258145 -0.872908 -1.77675e-20)
(-0.0152994 -0.921043 -7.23073e-20)
(-0.00660024 -0.938421 0)
(0.000593372 -0.0920823 1.85002e-21)
(0.00116724 -0.0878114 1.00171e-21)
(0.00170406 -0.0822514 0)
(0.00216297 -0.076309 0)
(0.00251642 -0.0699028 0)
(0.00276734 -0.0629709 -2.81253e-21)
(0.00292089 -0.0554716 -2.68095e-21)
(0.00298855 -0.0473791 0)
(0.00299329 -0.0386864 0)
(0.0029743 -0.029414 1.0963e-20)
(0.00299226 -0.0196264 1.171e-20)
(0.00314417 -0.00946014 0)
(0.0035775 0.000836979 0)
(0.00427083 0.0107803 0)
(0.00519344 0.0196846 0)
(0.006302 0.0268375 0)
(0.00723243 0.0310913 0)
(0.00632104 0.0319795 0)
(-0.0071092 0.0335632 0)
(-0.0458382 0.059783 0)
(-0.115759 0.126933 0)
(-0.200576 0.265103 0)
(-0.207451 0.450595 1.27735e-18)
(-0.165279 0.461508 4.78484e-19)
(-0.146143 0.393239 0)
(-0.129311 0.293994 -9.59828e-20)
(-0.118608 0.182695 -9.1722e-20)
(-0.110083 0.065778 0)
(-0.10279 -0.0534014 0)
(-0.0960616 -0.172191 0)
(-0.0893212 -0.288893 0)
(-0.0820574 -0.401921 0)
(-0.0740666 -0.509671 0)
(-0.0653361 -0.610659 0)
(-0.0559777 -0.703679 0)
(-0.0461569 -0.787846 0)
(-0.0360327 -0.862532 0)
(-0.0258183 -0.927151 -2.85527e-20)
(-0.0154937 -0.980159 -7.35268e-20)
(-0.00678459 -1.00234 -2.03728e-20)
(-0.000390209 -0.0937284 -2.53746e-21)
(-0.000653677 -0.0880965 -2.43745e-21)
(-0.00146853 -0.0817166 0)
(-0.00247179 -0.0751603 0)
(-0.00369527 -0.068266 2.27894e-21)
(-0.00513108 -0.0609546 -2.68674e-21)
(-0.00677661 -0.0531845 -8.53239e-21)
(-0.00862316 -0.0449359 -1.43541e-21)
(-0.0106547 -0.0362077 2.51591e-21)
(-0.0128473 -0.027024 5.73084e-21)
(-0.015171 -0.0174408 5.81503e-21)
(-0.0175837 -0.00755548 0)
(-0.0201439 0.00245829 0)
(-0.0227215 0.0121868 0)
(-0.0255825 0.0212329 0)
(-0.0292509 0.0295168 0)
(-0.0351011 0.0375463 0)
(-0.045913 0.0475475 0)
(-0.0684703 0.0651335 0)
(-0.107454 0.104107 0)
(-0.159039 0.17998 0)
(-0.206421 0.300483 -1.0573e-18)
(-0.197631 0.422802 -8.06348e-19)