/*--------------------------------*- C++ -*----------------------------------*\
| =========                 |                                                 |
| \\      /  F ield         | OpenFOAM: The Open Source CFD Toolbox           |
|  \\    /   O peration     | Version:  2.2.0                                 |
|   \\  /    A nd           | Web:      www.OpenFOAM.org                      |
|    \\/     M anipulation  |                                                 |
\*---------------------------------------------------------------------------*/
FoamFile
{
    version     2.0;
    format      ascii;
    class       volScalarField;
    location    "1000";
    object      T;
}
// * * * * * * * * * * * * * * * * * * * * * * * * * * * * * * * * * * * * * //

dimensions      [0 0 0 1 0 0 0];

internalField   nonuniform List<scalar> 
800
(
349.834
349.88
349.927
349.976
349.831
349.877
349.926
349.975
349.824
349.873
349.924
349.974
349.817
349.868
349.921
349.974
349.808
349.863
349.918
349.973
349.8
349.857
349.914
349.971
349.792
349.852
349.911
349.97
349.785
349.847
349.908
349.969
349.778
349.842
349.905
349.968
349.772
349.838
349.903
349.968
349.767
349.834
349.901
349.967
349.762
349.831
349.899
349.966
349.759
349.828
349.897
349.966
349.755
349.825
349.895
349.965
349.752
349.823
349.894
349.965
349.749
349.821
349.892
349.964
349.746
349.819
349.891
349.964
349.743
349.817
349.89
349.963
349.741
349.815
349.889
349.963
349.739
349.814
349.888
349.963
349.737
349.812
349.887
349.962
349.735
349.811
349.887
349.962
349.734
349.81
349.886
349.962
349.732
349.809
349.885
349.962
349.73
349.807
349.884
349.962
349.729
349.806
349.884
349.961
349.728
349.805
349.883
349.961
349.726
349.804
349.883
349.961
349.725
349.803
349.882
349.961
349.723
349.803
349.882
349.961
349.722
349.802
349.881
349.96
349.721
349.801
349.88
349.96
349.719
349.8
349.88
349.96
349.718
349.799
349.879
349.96
349.717
349.798
349.879
349.96
349.716
349.797
349.878
349.959
349.714
349.796
349.877
349.959
349.712
349.795
349.877
349.959
349.711
349.794
349.876
349.959
349.71
349.792
349.875
349.958
349.708
349.791
349.875
349.958
349.707
349.79
349.874
349.958
349.704
349.789
349.873
349.958
349.702
349.788
349.873
349.958
349.701
349.787
349.872
349.957
349.7
349.786
349.871
349.957
349.698
349.784
349.871
349.957
349.697
349.783
349.87
349.957
349.694
349.781
349.869
349.956
349.692
349.78
349.868
349.956
349.69
349.779
349.867
349.956
349.689
349.778
349.867
349.956
349.688
349.777
349.866
349.955
349.686
349.775
349.865
349.955
349.683
349.774
349.864
349.955
349.68
349.771
349.863
349.954
349.677
349.77
349.862
349.954
349.675
349.768
349.861
349.954
349.673
349.767
349.86
349.953
349.672
349.765
349.859
349.953
349.67
349.764
349.858
349.953
349.667
349.762
349.857
349.952
349.662
349.759
349.856
349.952
349.659
349.757
349.854
349.951
349.657
349.755
349.853
349.951
349.656
349.754
349.853
349.951
349.655
349.753
349.852
349.951
349.654
349.753
349.852
349.951
349.652
349.752
349.851
349.95
349.651
349.751
349.85
349.95
349.649
349.749
349.85
349.95
349.648
349.749
349.849
349.95
349.647
349.748
349.849
349.95
349.647
349.748
349.849
349.95
349.647
349.748
349.849
349.95
349.647
349.748
349.849
349.95
349.648
349.749
349.85
349.95
349.65
349.75
349.85
349.95
349.653
349.752
349.851
349.951
349.657
349.755
349.853
349.951
349.66
349.756
349.854
349.951
349.661
349.757
349.854
349.951
349.661
349.757
349.854
349.951
349.661
349.757
349.854
349.951
349.659
349.756
349.853
349.951
349.657
349.754
349.852
349.95
349.652
349.75
349.849
349.95
349.645
349.745
349.846
349.949
349.634
349.737
349.842
349.947
349.616
349.727
349.837
349.946
349.605
349.72
349.832
349.944
349.597
349.714
349.829
349.943
349.592
349.71
349.826
349.942
349.588
349.707
349.824
349.941
349.585
349.704
349.822
349.941
349.582
349.701
349.821
349.94
349.579
349.698
349.819
349.94
349.574
349.695
349.816
349.939
349.568
349.69
349.813
349.938
349.558
349.683
349.809
349.936
349.542
349.674
349.805
349.935
349.532
349.668
349.801
349.934
349.526
349.663
349.798
349.933
349.522
349.659
349.796
349.932
349.518
349.656
349.794
349.931
349.515
349.654
349.792
349.931
349.513
349.652
349.791
349.93
349.51
349.649
349.789
349.93
349.506
349.646
349.787
349.929
349.501
349.642
349.785
349.928
349.493
349.636
349.782
349.927
349.479
349.629
349.778
349.926
349.471
349.624
349.775
349.925
349.466
349.62
349.772
349.924
349.462
349.616
349.77
349.923
349.459
349.614
349.768
349.923
349.456
349.612
349.767
349.922
349.454
349.609
349.765
349.922
349.45
349.606
349.764
349.921
349.445
349.603
349.761
349.92
349.438
349.598
349.758
349.919
349.427
349.592
349.755
349.918
349.42
349.587
349.752
349.918
349.415
349.583
349.75
349.917
349.412
349.58
349.748
349.916
349.408
349.578
349.747
349.916
349.405
349.575
349.745
349.915
349.402
349.572
349.743
349.914
349.397
349.569
349.741
349.914
349.391
349.564
349.738
349.913
349.38
349.558
349.735
349.912
349.373
349.553
349.732
349.911
349.369
349.55
349.73
349.91
349.365
349.546
349.728
349.909
349.361
349.544
349.726
349.909
349.358
349.54
349.724
349.908
349.353
349.537
349.722
349.907
349.346
349.532
349.719
349.906
349.335
349.526
349.716
349.905
349.328
349.521
349.713
349.904
349.323
349.517
349.71
349.903
349.319
349.514
349.708
349.903
349.315
349.51
349.706
349.902
349.31
349.506
349.703
349.901
349.303
349.501
349.7
349.9
349.292
349.495
349.697
349.899
349.284
349.49
349.694
349.898
349.279
349.486
349.691
349.897
349.275
349.482
349.689
349.896
349.27
349.478
349.687
349.896
349.265
349.474
349.684
349.895
349.257
349.468
349.681
349.894
349.246
349.462
349.677
349.892
349.238
349.456
349.674
349.891
349.232
349.451
349.671
349.89
349.226
349.447
349.668
349.889
349.219
349.441
349.665
349.888
349.211
349.435
349.661
349.887
349.198
349.428
349.657
349.886
349.189
349.421
349.653
349.884
349.181
349.415
349.649
349.883
349.173
349.409
349.645
349.882
349.164
349.402
349.641
349.88
349.149
349.393
349.636
349.879
349.139
349.386
349.632
349.877
349.131
349.379
349.627
349.876
349.122
349.372
349.623
349.874
349.112
349.365
349.618
349.873
349.097
349.355
349.613
349.871
349.086
349.347
349.609
349.87
349.076
349.34
349.604
349.868
349.067
349.332
349.599
349.866
349.055
349.323
349.594
349.865
349.038
349.313
349.588
349.863
349.025
349.303
349.582
349.861
349.012
349.294
349.576
349.859
348.998
349.283
349.57
349.856
348.979
349.271
349.563
349.854
348.964
349.26
349.556
349.852
348.95
349.249
349.549
349.85
348.934
349.236
349.541
349.847
348.911
349.222
349.533
349.844
348.892
349.208
349.524
349.841
348.872
349.193
349.515
349.838
348.846
349.176
349.505
349.835
348.824
349.159
349.495
349.832
348.801
349.142
349.484
349.828
348.772
349.122
349.473
349.824
348.746
349.102
349.461
349.82
348.718
349.081
349.447
349.816
348.681
349.056
349.432
349.811
348.645
349.029
349.416
349.805
348.601
348.999
349.399
349.799
348.559
348.968
349.38
349.793
348.508
348.934
349.36
349.787
348.46
348.899
349.339
349.78
348.402
348.863
349.319
349.773
348.356
348.83
349.301
349.767
348.306
348.803
349.286
349.763
348.284
348.788
349.278
349.76
)
;

boundaryField
{
    brick_to_air
    {
        type            compressible::turbulentTemperatureCoupledBaffleMixed;
        refValue        nonuniform List<scalar> 
200
(
303.463
303.463
303.815
303.815
304.058
304.058
304.256
304.256
304.433
304.433
304.603
304.603
304.603
304.773
304.773
304.773
304.948
304.948
304.948
305.132
305.132
305.132
305.132
305.327
305.327
305.327
305.327
305.537
305.537
305.537
305.537
305.537
305.762
305.762
305.762
305.762
305.762
306.009
306.009
306.009
306.009
306.009
306.286
306.286
306.286
306.286
306.286
306.286
306.628
306.628
306.628
306.628
306.628
306.628
306.628
307.073
307.073
307.073
307.073
307.073
307.073
307.073
307.738
307.738
307.738
307.738
307.738
307.738
307.738
307.738
308.974
308.974
308.974
308.974
308.974
308.974
308.974
308.974
308.974
309.7
309.7
309.7
309.7
309.7
309.7
309.7
309.7
309.7
309.7
308.452
308.452
308.452
308.452
308.452
308.452
308.452
308.452
308.452
308.452
308.452
307.574
307.574
307.574
307.574
307.574
307.574
307.574
307.574
307.574
307.574
307.574
306.957
306.957
306.957
306.957
306.957
306.957
306.957
306.957
306.957
306.957
306.483
306.483
306.483
306.483
306.483
306.483
306.483
306.483
306.483
306.086
306.086
306.086
306.086
306.086
306.086
306.086
306.086
305.733
305.733
305.733
305.733
305.733
305.733
305.733
305.405
305.405
305.405
305.405
305.405
305.405
305.405
305.092
305.092
305.092
305.092
305.092
305.092
304.79
304.79
304.79
304.79
304.79
304.494
304.494
304.494
304.494
304.494
304.203
304.203
304.203
304.203
304.203
303.926
303.926
303.926
303.926
303.664
303.664
303.664
303.664
303.417
303.417
303.417
303.181
303.181
303.181
302.955
302.955
302.955
302.733
302.733
302.508
302.508
302.262
302.262
301.926
301.926
301.606
301.606
)
;
        refGradient     uniform 0;
        valueFraction   nonuniform List<scalar> 
200
(
0.000454553
0.000454553
0.000544068
0.000544068
0.000616465
0.000616465
0.000674955
0.000674955
0.000722715
0.000722715
0.000762179
0.000762179
0.000762179
0.000795154
0.000795154
0.000795154
0.000823223
0.000823223
0.000823223
0.000847947
0.000847947
0.000847947
0.000847947
0.000870975
0.000870975
0.000870975
0.000870975
0.000894089
0.000894089
0.000894089
0.000894089
0.000894089
0.000919261
0.000919261
0.000919261
0.000919261
0.000919261
0.00094863
0.00094863
0.00094863
0.00094863
0.00094863
0.000984885
0.000984885
0.000984885
0.000984885
0.000984885
0.000984885
0.00103046
0.00103046
0.00103046
0.00103046
0.00103046
0.00103046
0.00103046
0.00109501
0.00109501
0.00109501
0.00109501
0.00109501
0.00109501
0.00109501
0.00118067
0.00118067
0.00118067
0.00118067
0.00118067
0.00118067
0.00118067
0.00118067
0.00124893
0.00124893
0.00124893
0.00124893
0.00124893
0.00124893
0.00124893
0.00124893
0.00124893
0.00119219
0.00119219
0.00119219
0.00119219
0.00119219
0.00119219
0.00119219
0.00119219
0.00119219
0.00119219
0.00144551
0.00144551
0.00144551
0.00144551
0.00144551
0.00144551
0.00144551
0.00144551
0.00144551
0.00144551
0.00144551
0.00165417
0.00165417
0.00165417
0.00165417
0.00165417
0.00165417
0.00165417
0.00165417
0.00165417
0.00165417
0.00165417
0.00182466
0.00182466
0.00182466
0.00182466
0.00182466
0.00182466
0.00182466
0.00182466
0.00182466
0.00182466
0.00196935
0.00196935
0.00196935
0.00196935
0.00196935
0.00196935
0.00196935
0.00196935
0.00196935
0.00210211
0.00210211
0.00210211
0.00210211
0.00210211
0.00210211
0.00210211
0.00210211
0.00223053
0.00223053
0.00223053
0.00223053
0.00223053
0.00223053
0.00223053
0.00235943
0.00235943
0.00235943
0.00235943
0.00235943
0.00235943
0.00235943
0.00249205
0.00249205
0.00249205
0.00249205
0.00249205
0.00249205
0.00263001
0.00263001
0.00263001
0.00263001
0.00263001
0.00277621
0.00277621
0.00277621
0.00277621
0.00277621
0.00293302
0.00293302
0.00293302
0.00293302
0.00293302
0.00309866
0.00309866
0.00309866
0.00309866
0.00327388
0.00327388
0.00327388
0.00327388
0.00345948
0.00345948
0.00345948
0.00365662
0.00365662
0.00365662
0.0038671
0.0038671
0.0038671
0.00409399
0.00409399
0.00434379
0.00434379
0.00463712
0.00463712
0.00507447
0.00507447
0.00562758
0.00562758
)
;
        value           nonuniform List<scalar> 
200
(
349.813
349.81
349.799
349.792
349.78
349.772
349.761
349.754
349.745
349.74
349.732
349.728
349.724
349.719
349.716
349.713
349.709
349.706
349.704
349.701
349.699
349.697
349.696
349.693
349.692
349.69
349.689
349.686
349.685
349.684
349.683
349.682
349.679
349.678
349.677
349.675
349.674
349.671
349.669
349.668
349.667
349.665
349.661
349.66
349.658
349.657
349.656
349.654
349.649
349.647
349.646
349.645
349.643
349.642
349.639
349.633
349.63
349.628
349.627
349.625
349.623
349.62
349.612
349.61
349.608
349.606
349.605
349.604
349.603
349.601
349.598
349.597
349.596
349.596
349.596
349.596
349.597
349.599
349.602
349.61
349.612
349.614
349.614
349.613
349.612
349.609
349.605
349.598
349.587
349.556
349.545
349.538
349.533
349.529
349.526
349.523
349.519
349.515
349.508
349.498
349.473
349.463
349.457
349.452
349.449
349.446
349.443
349.44
349.437
349.431
349.423
349.402
349.394
349.388
349.385
349.382
349.379
349.376
349.373
349.368
349.361
349.342
349.335
349.331
349.327
349.324
349.321
349.317
349.313
349.306
349.289
349.282
349.278
349.274
349.27
349.267
349.262
349.255
349.238
349.231
349.226
349.222
349.218
349.212
349.205
349.188
349.181
349.176
349.171
349.167
349.161
349.154
349.136
349.128
349.122
349.116
349.109
349.101
349.081
349.072
349.064
349.057
349.047
349.025
349.015
349.007
348.999
348.988
348.965
348.954
348.945
348.935
348.923
348.898
348.885
348.873
348.859
348.831
348.816
348.802
348.785
348.753
348.735
348.715
348.679
348.657
348.634
348.594
348.569
348.541
348.492
348.457
348.4
348.359
348.293
348.246
348.166
348.12
348.043
348.021
)
;
        neighbourFieldName T;
        kappa           solidThermo;
        kappaName       none;
    }
    interior
    {
        type            fixedValue;
        value           uniform 350;
    }
    top
    {
        type            zeroGradient;
    }
    bottom
    {
        type            zeroGradient;
    }
    sides
    {
        type            empty;
    }
}


// ************************************************************************* //
