/*--------------------------------*- C++ -*----------------------------------*\
| =========                 |                                                 |
| \\      /  F ield         | OpenFOAM: The Open Source CFD Toolbox           |
|  \\    /   O peration     | Version:  2.2.0                                 |
|   \\  /    A nd           | Web:      www.OpenFOAM.org                      |
|    \\/     M anipulation  |                                                 |
\*---------------------------------------------------------------------------*/
FoamFile
{
    version     2.0;
    format      ascii;
    class       volScalarField;
    location    "1000";
    object      alphat;
}
// * * * * * * * * * * * * * * * * * * * * * * * * * * * * * * * * * * * * * //

dimensions      [1 -1 -1 0 0 0 0];

internalField   nonuniform List<scalar> 
7600
(
0.00034964
0.000342356
0.000353283
0.000458902
0.000554089
0.000632273
0.000701765
0.00076571
0.000825537
0.000882002
0.000935532
0.000986391
0.00103474
0.00108068
0.00112426
0.00116551
0.00120445
0.0012411
0.00127548
0.00130762
0.00133757
0.00136306
0.00138309
0.00139846
0.00140913
0.00141519
0.00141643
0.00141233
0.00140211
0.0013848
0.00135926
0.00132421
0.00127823
0.00121984
0.0011474
0.00105913
0.000952901
0.00082675
0.000676139
0.000395308
0.00044482
0.00153957
0.00154058
0.00157707
0.00174498
0.00189536
0.00203319
0.00217113
0.00231627
0.00247358
0.00264636
0.00283695
0.00304717
0.00327854
0.00353253
0.00381078
0.00411541
0.00444958
0.00481823
0.00523015
0.00570154
0.00620388
0.00668663
0.00713026
0.00756182
0.00797066
0.0083399
0.00864723
0.00886592
0.0089663
0.0089178
0.00869152
0.0082634
0.007618
0.00675304
0.00568442
0.00445051
0.00311419
0.00176507
0.000579582
0.000570674
0.00240598
0.00269386
0.00289324
0.00321812
0.00357047
0.00394112
0.00433854
0.00476915
0.0052368
0.00574261
0.00628572
0.0068639
0.00747413
0.00811295
0.00877684
0.0094626
0.010168
0.010893
0.0116416
0.0124249
0.0131804
0.0138354
0.0143896
0.0148658
0.0152444
0.0154971
0.0155902
0.0154874
0.015154
0.0145612
0.0136898
0.012535
0.0111103
0.00945168
0.00762183
0.00571257
0.00384433
0.00213863
0.000723403
0.000695404
0.00339242
0.00410591
0.00450312
0.00502062
0.00562707
0.00629829
0.00702665
0.00780592
0.00862838
0.00948472
0.0103653
0.0112612
0.0121646
0.0130688
0.0139679
0.0148561
0.0157284
0.0165804
0.0174105
0.0182201
0.0189387
0.019506
0.0199324
0.0202353
0.0203991
0.0203983
0.0202008
0.0197717
0.0190774
0.018091
0.0167974
0.0151984
0.0133173
0.0112031
0.00893432
0.00662004
0.00440024
0.00241064
0.000828919
0.000785126
0.00440463
0.005699
0.00638083
0.00712776
0.0080022
0.00897669
0.0100237
0.0111184
0.0122374
0.0133605
0.0144721
0.0155617
0.0166228
0.0176511
0.0186427
0.0195928
0.0204951
0.0213416
0.0221239
0.0228342
0.0234062
0.0237992
0.0240379
0.0241427
0.0241053
0.0239043
0.0235083
0.0228796
0.0219796
0.0207754
0.0192465
0.0173905
0.0152281
0.0128068
0.0102053
0.00753704
0.00496047
0.00265661
0.000919192
0.000864068
0.00534498
0.00735126
0.00842082
0.00943907
0.0105774
0.0118236
0.0131363
0.0144743
0.0158019
0.0170928
0.0183309
0.0195092
0.0206267
0.0216844
0.0226821
0.0236159
0.0244779
0.0252555
0.0259329
0.0264936
0.0268837
0.027078
0.0271305
0.0270641
0.0268768
0.0265493
0.0260471
0.0253252
0.024335
0.0230325
0.0213865
0.019385
0.0170396
0.0143892
0.0115044
0.00849688
0.00554387
0.00289444
0.0010003
0.00093248
0.00616744
0.008962
0.0105039
0.0118328
0.0132259
0.0147021
0.0162171
0.0177209
0.0191723
0.0205443
0.0218254
0.0230155
0.0241208
0.0251481
0.0261005
0.0269741
0.0277578
0.0284331
0.0289758
0.0293612
0.0295512
0.0295467
0.0294286
0.029225
0.0289389
0.0285502
0.0280178
0.0272855
0.0262907
0.0249751
0.0232943
0.0212244
0.0187661
0.0159459
0.012822
0.00949689
0.00616054
0.00313857
0.00107526
0.000991008
0.00684545
0.0104536
0.0125229
0.0141913
0.0158283
0.0174938
0.019152
0.0207526
0.0222556
0.0236393
0.0248997
0.0260455
0.0270905
0.0280469
0.0289196
0.0297033
0.0303821
0.0309304
0.0313149
0.0315041
0.0314799
0.0312824
0.0310146
0.0307114
0.0303782
0.0299905
0.0294969
0.0288258
0.0278971
0.0266359
0.0249838
0.0229055
0.0203905
0.0174533
0.0141365
0.0105267
0.00681425
0.00339752
0.00114564
0.00104046
0.00736508
0.0117679
0.0143898
0.0164132
0.0182823
0.0201019
0.0218536
0.0234945
0.0249917
0.0263323
0.0275226
0.0285807
0.029528
0.0303806
0.0311442
0.0318106
0.0323585
0.0327547
0.0329576
0.0329312
0.0326838
0.0323065
0.0319209
0.0315657
0.0312446
0.0309243
0.0305384
0.0299956
0.0291955
0.0280452
0.0264724
0.0244318
0.0219045
0.0188947
0.0154296
0.0115745
0.00750468
0.00367644
0.00121241
0.00108158
0.00772332
0.0128644
0.0160383
0.0184188
0.0205071
0.0224518
0.0242579
0.0258953
0.0273419
0.0285964
0.0296766
0.0306102
0.0314256
0.0321422
0.0327658
0.0332851
0.0336734
0.0338912
0.0338906
0.033636
0.0331683
0.0326409
0.0321859
0.0318398
0.0315986
0.0314155
0.0312048
0.0308526
0.0302359
0.0292429
0.0277885
0.0258197
0.0233124
0.020264
0.0166886
0.0126278
0.00822747
0.00397777
0.00127623
0.00111505
0.0079256
0.0137186
0.0174223
0.020151
0.0224447
0.0244917
0.0263229
0.0279243
0.0292866
0.030421
0.031357
0.0321321
0.0327813
0.0333276
0.0337768
0.0341163
0.034316
0.0343326
0.0341163
0.0336376
0.0329738
0.0323477
0.0318875
0.0316192
0.0315261
0.0315446
0.0315682
0.0314592
0.0310707
0.0302717
0.028965
0.0270919
0.0246264
0.0215629
0.0179063
0.0136752
0.00897553
0.00430205
0.00133762
0.00114152
0.00798345
0.01432
0.0185147
0.0215744
0.0240598
0.0261925
0.0280291
0.0295726
0.0308267
0.0318147
0.0325772
0.0331617
0.0336098
0.0339493
0.0341886
0.0343165
0.0343044
0.0341106
0.0336882
0.0330186
0.0322122
0.0315578
0.0311622
0.0310338
0.0311408
0.0314053
0.0317028
0.0318729
0.0317446
0.0311666
0.0300292
0.0282689
0.0258595
0.0227962
0.019079
0.0147068
0.00973993
0.00464829
0.00139705
0.00116158
0.00791266
0.014671
0.019305
0.0226733
0.0253382
0.027547
0.0293792
0.0308536
0.0319858
0.0328095
0.0333755
0.0337405
0.0339545
0.0340521
0.0340489
0.0339414
0.0337101
0.0333232
0.0327422
0.0319583
0.0310963
0.0304934
0.0302197
0.0302641
0.0305859
0.0311024
0.0316802
0.0321404
0.0322879
0.0319483
0.0309964
0.0293624
0.0270204
0.0239681
0.0202045
0.015714
0.010511
0.00501437
0.00145498
0.00117577
0.00773167
0.0147842
0.0197973
0.0234492
0.0262846
0.0285674
0.0303959
0.0318025
0.0328114
0.0334642
0.0338198
0.0339443
0.0338975
0.0337251
0.0334564
0.0331055
0.0326745
0.0321534
0.0315172
0.0307525
0.0299524
0.029474
0.0293461
0.0295455
0.0300379
0.0307551
0.031571
0.0322977
0.0327152
0.0326208
0.0318674
0.0303734
0.0281106
0.0250795
0.0212808
0.0166896
0.0112792
0.00539739
0.00151193
0.00118453
0.00746025
0.014681
0.0200072
0.0239169
0.0269178
0.0292808
0.031118
0.0324715
0.0333708
0.0338612
0.0340076
0.0338842
0.0335631
0.0331062
0.0325653
0.0319857
0.0314093
0.0308661
0.0303474
0.0297943
0.0291863
0.0288827
0.0288806
0.0291582
0.0297074
0.030502
0.0314508
0.0323734
0.0330278
0.0331736
0.0326295
0.0312922
0.0291246
0.0261276
0.0223052
0.0176284
0.0120364
0.00579433
0.00156858
0.0011882
0.00711809
0.0143883
0.0199583
0.0240995
0.027265
0.0297223
0.0315919
0.0329215
0.033742
0.0340981
0.0340564
0.0336983
0.0331094
0.0323731
0.0315741
0.0308051
0.0301706
0.029764
0.0295914
0.0294752
0.029168
0.0290596
0.0291365
0.0293817
0.0298226
0.0305024
0.0314065
0.0323966
0.033219
0.0335852
0.0332602
0.0321016
0.0300522
0.027108
0.0232761
0.0185278
0.012777
0.0062029
0.00162579
0.00118689
0.00672345
0.0139352
0.0196783
0.0240236
0.0273551
0.0299267
0.0318617
0.0332101
0.034
0.0342708
0.0340864
0.0335321
0.0327068
0.0317199
0.0306972
0.0297944
0.029201
0.0290957
0.0294847
0.0299719
0.030025
0.0301115
0.0302456
0.0303885
0.0305727
0.0309187
0.0315399
0.0324043
0.0332815
0.0338291
0.0337317
0.0327811
0.0308823
0.0280175
0.0241948
0.0193897
0.0135002
0.00662273
0.00168473
0.00118048
0.00629227
0.0133496
0.0191937
0.0237131
0.0272118
0.0299202
0.0319592
0.0333781
0.0341997
0.0344542
0.0341971
0.0335124
0.0325093
0.0313227
0.0301237
0.0291384
0.0286538
0.0289424
0.0299829
0.0310771
0.0314385
0.0317092
0.0319607
0.0320721
0.0319913
0.0318609
0.0319552
0.0324475
0.0332152
0.0338796
0.0340157
0.0333114
0.031607
0.028858
0.0250693
0.0202231
0.0142116
0.00705684
0.00174702
0.00116839
0.00583469
0.0126551
0.0185263
0.0231841
0.0268473
0.0297137
0.031896
0.0334411
0.0343653
0.034687
0.0344482
0.0337246
0.0326276
0.0313118
0.0299868
0.0289406
0.0285477
0.0291593
0.0307055
0.0321741
0.0326616
0.0330914
0.0335972
0.0339166
0.0337994
0.0332727
0.0327118
0.0325853
0.0330318
0.0337153
0.0340858
0.0336765
0.0322246
0.0296393
0.0259166
0.021047
0.0149257
0.00751323
0.00181492
0.00115051
0.00531845
0.0118199
0.0176587
0.0224231
0.026246
0.0292868
0.0316465
0.0333692
0.0344669
0.0349467
0.0348349
0.0341904
0.033111
0.0317551
0.0303545
0.0292284
0.028792
0.0294292
0.0310492
0.0324905
0.0329143
0.0335118
0.0343957
0.0351737
0.0353806
0.0348001
0.0337176
0.032845
0.032749
0.0333159
0.0339119
0.0338594
0.0327376
0.0303806
0.0267658
0.0218932
0.0156692
0.0080075
0.00189157
0.00112784
0.00483127
0.0109472
0.0166927
0.0215197
0.0254769
0.0286819
0.0312196
0.0331304
0.0344237
0.0351001
0.0351731
0.0346858
0.0337245
0.0324307
0.0310218
0.0297954
0.0291207
0.029318
0.0303366
0.031435
0.0320871
0.0329759
0.0342241
0.0354632
0.0361451
0.0358445
0.0346038
0.0331242
0.0323659
0.0326601
0.0334572
0.0338383
0.0331516
0.0311113
0.0276629
0.022814
0.0164899
0.00856991
0.00198155
0.00110214
0.00441258
0.0101359
0.0157416
0.0205854
0.0246403
0.0279826
0.0306788
0.0327631
0.0342436
0.0351174
0.0353903
0.0350929
0.0342966
0.0331248
0.0317676
0.0304814
0.0295679
0.0292806
0.0296452
0.0303856
0.0312855
0.0324719
0.0339678
0.035484
0.0364977
0.0364772
0.0352337
0.0332999
0.031857
0.0317712
0.0327188
0.0335918
0.0334375
0.0317996
0.0285782
0.0237853
0.0173687
0.0091848
0.00208192
0.00107368
0.00405039
0.00938429
0.0148145
0.0196372
0.0237584
0.0272144
0.0300509
0.032294
0.0339495
0.0350133
0.0354866
0.0353917
0.0347875
0.0337809
0.0325373
0.0312775
0.030257
0.0297049
0.0297359
0.0303155
0.0312928
0.0326104
0.0341996
0.0358008
0.036934
0.0370433
0.0358027
0.0335436
0.0314695
0.0308809
0.0318304
0.0331426
0.0335703
0.0324023
0.0294607
0.0247577
0.0182637
0.0098354
0.0021872
0.00104279
0.00373478
0.00868801
0.0139149
0.018684
0.0228443
0.0263936
0.0293554
0.0317458
0.033567
0.0348139
0.0354855
0.0355991
0.0352046
0.0343964
0.0333206
0.0321729
0.031181
0.0305669
0.0305008
0.0310405
0.0320208
0.0333423
0.0348939
0.0364245
0.0374875
0.0375396
0.0362051
0.0336773
0.0310801
0.0299929
0.0308757
0.032566
0.0335558
0.0329261
0.0303286
0.0257572
0.019201
0.0105146
0.00229833
0.00100975
0.00345827
0.0080433
0.0130447
0.0177314
0.0219057
0.0255294
0.0286036
0.0311322
0.0331126
0.0345378
0.0354058
0.0357311
0.0355578
0.0349707
0.0341021
0.0331288
0.0322592
0.0317067
0.0316642
0.0322167
0.0331704
0.0344231
0.0358462
0.0371909
0.0380343
0.0378603
0.0363015
0.0335041
0.0305113
0.0290241
0.0298404
0.0318871
0.0334431
0.0333657
0.0311916
0.0268088
0.0202101
0.0112512
0.002417
0.0009748
0.00321483
0.00744645
0.0122047
0.0167826
0.0209464
0.0246259
0.0277997
0.0304584
0.0325927
0.034193
0.035256
0.0357945
0.0358486
0.0354959
0.0348572
0.0340941
0.0333971
0.0329663
0.0329936
0.0335606
0.0344659
0.0355975
0.03682
0.0378844
0.0383862
0.0378451
0.0359415
0.0328542
0.0296007
0.0278924
0.0287146
0.0311148
0.0332452
0.0337588
0.0320452
0.0279273
0.0213187
0.0120663
0.00254437
0.000938159
0.00299967
0.00689435
0.0113953
0.0158392
0.0199678
0.0236831
0.0269425
0.0297223
0.032005
0.0337771
0.0350332
0.0357842
0.0360668
0.0359524
0.0355517
0.0350114
0.0345038
0.03421
0.034307
0.03486
0.0356787
0.0366325
0.0375804
0.0382718
0.0383216
0.0372996
0.0349692
0.0316038
0.0282538
0.0265649
0.0275233
0.0302822
0.0329829
0.0341254
0.0329318
0.0291129
0.0225404
0.0129802
0.00268159
0.000900011
0.00280904
0.00638459
0.0106171
0.0149031
0.0189709
0.0227
0.026028
0.0289173
0.0313407
0.0332791
0.0347238
0.0356828
0.0361892
0.036308
0.0361394
0.0358149
0.0354867
0.0353126
0.0354444
0.0359275
0.0366005
0.0373014
0.0378853
0.0381026
0.0375967
0.0360144
0.0332458
0.0297073
0.0265007
0.0251161
0.0263612
0.0294703
0.0327063
0.0344965
0.0338825
0.0304167
0.0238771
0.0139942
0.0028301
0.000860517
0.00263998
0.00591548
0.00987214
0.0139774
0.017958
0.0216762
0.0250526
0.0280354
0.0305874
0.0326821
0.0343058
0.0354625
0.0361803
0.0365166
0.0365602
0.0364257
0.036243
0.0361423
0.0362422
0.0365679
0.0370043
0.0373511
0.0374632
0.0371
0.0359569
0.033803
0.0307117
0.0272658
0.0245576
0.0237758
0.0254215
0.0288257
0.0325107
0.0349281
0.0349353
0.0318766
0.0253853
0.0151003
0.00299117
0.000819829
0.00249009
0.00548603
0.00916357
0.0130681
0.0169348
0.0206154
0.0240159
0.0270712
0.0297332
0.0319671
0.0337523
0.0350869
0.0359921
0.0365162
0.0367344
0.0367423
0.0366446
0.0365389
0.0365016
0.0365397
0.0365786
0.0364607
0.0359931
0.03497
0.033187
0.0306048
0.0275246
0.0246421
0.0228654
0.0229206
0.0249856
0.0285593
0.0325403
0.0355057
0.03614
0.0335286
0.0271023
0.0163573
0.00316449
0.000778097
0.00235745
0.0050959
0.00849656
0.0121846
0.0159129
0.0195278
0.022924
0.0260242
0.0287692
0.0311145
0.0330309
0.0345081
0.0355584
0.0362184
0.0365468
0.0366172
0.0365055
0.0362706
0.0359366
0.0355031
0.0349552
0.0342496
0.0331437
0.0315003
0.0292896
0.0267231
0.0242738
0.0225414
0.0220247
0.0229644
0.0253439
0.0289003
0.032965
0.0363349
0.0375552
0.0354079
0.0290559
0.0177854
0.00335076
0.000735497
0.0022405
0.00474553
0.00787854
0.0113414
0.0149102
0.0184312
0.0217903
0.0248992
0.0276873
0.0300987
0.0320931
0.0336496
0.0347684
0.0354714
0.0357984
0.0357979
0.0355126
0.0349588
0.0341072
0.0329878
0.0317085
0.0303346
0.0287904
0.0269011
0.0248921
0.0231472
0.0220467
0.0218263
0.0225453
0.0241652
0.0266567
0.0299983
0.0339202
0.0375072
0.0392309
0.0375429
0.0312691
0.019403
0.00355075
0.000692265
0.00213819
0.00443673
0.00731993
0.0105579
0.0139516
0.0173493
0.0206302
0.0236954
0.0264608
0.0288565
0.0308286
0.0323429
0.0333863
0.0339653
0.0341004
0.0338162
0.0331274
0.0320212
0.0304523
0.0285802
0.026722
0.0250411
0.0236848
0.0224114
0.0215694
0.0213839
0.0218842
0.0229699
0.0245138
0.0264513
0.028835
0.0318166
0.0354235
0.039049
0.0411789
0.0399389
0.033753
0.0212255
0.00376547
0.000648756
0.00205071
0.00417433
0.00683558
0.00985804
0.0130621
0.0162969
0.0194332
0.0223579
0.0249697
0.0271823
0.0289299
0.0301686
0.0308788
0.0310614
0.030732
0.0299132
0.0286272
0.0268969
0.0247791
0.0226849
0.0210947
0.0201549
0.0198963
0.0201481
0.0209641
0.022259
0.0238653
0.0256321
0.0274739
0.0293983
0.0315278
0.0341003
0.0373248
0.040876
0.0433407
0.0425574
0.0364961
0.0232623
0.00399639
0.000605651
0.0019828
0.00397093
0.00644678
0.0092616
0.0122396
0.01522
0.0180562
0.0206143
0.0227788
0.024462
0.025612
0.0261999
0.0262332
0.025748
0.0248015
0.0234701
0.0218549
0.0201076
0.0184868
0.0175069
0.0174181
0.018124
0.0194457
0.0211311
0.0230497
0.025053
0.0270273
0.0289071
0.0306831
0.0324151
0.0342527
0.0364586
0.0393363
0.0427897
0.045571
0.0452983
0.0394505
0.0255129
0.00424579
0.00056435
0.0019507
0.00385089
0.0061621
0.00871588
0.0113092
0.0137481
0.0158637
0.0175294
0.0186842
0.0193234
0.0194924
0.0192224
0.0186094
0.0177631
0.0167969
0.0158345
0.0150274
0.0145796
0.0147729
0.0157962
0.0174597
0.0195468
0.0218281
0.0241019
0.0262925
0.0283454
0.0302287
0.0319365
0.0334989
0.0349954
0.0365782
0.0385065
0.0411267
0.0445203
0.0476459
0.047987
0.0425151
0.0279594
0.00451737
0.000528843
0.0019952
0.00381064
0.00581372
0.00776264
0.00941791
0.0105768
0.0112034
0.0114035
0.0113607
0.0112031
0.0110273
0.0108401
0.0107317
0.0107517
0.0109499
0.0113935
0.0121777
0.0134303
0.015302
0.0176574
0.0201677
0.0226938
0.0250816
0.0272867
0.0293037
0.0311275
0.03276
0.034219
0.0355494
0.0368359
0.038225
0.0399631
0.0424123
0.0457898
0.0492882
0.050364
0.0455023
0.0305489
0.00481878
0.000520662
0.00201568
0.00337037
0.00434156
0.00489516
0.00508125
0.00498972
0.00495232
0.00512775
0.00553666
0.00611524
0.00680741
0.00768552
0.0086615
0.00974265
0.010953
0.0123378
0.0139629
0.015911
0.0182708
0.020847
0.0233478
0.025672
0.0277839
0.0296997
0.031426
0.0329688
0.0343405
0.0355675
0.0367002
0.0378228
0.0390736
0.0406824
0.0430078
0.0463638
0.0501903
0.0520406
0.0480263
0.033134
0.00517459
0.000568344
0.00136051
0.00185736
0.00211629
0.00249317
0.00301259
0.00380493
0.00489184
0.00615149
0.00738401
0.00858294
0.00973388
0.0108607
0.0119733
0.013107
0.0143137
0.0156562
0.0172017
0.0190191
0.0211734
0.0234822
0.0256478
0.0276213
0.0294166
0.0310398
0.032496
0.0337935
0.0349484
0.0359914
0.0369743
0.0379787
0.0391321
0.0406426
0.0428447
0.0460999
0.0500801
0.0525571
0.0494643
0.0354941
0.00569896
0.000934254
0.00155784
0.00261667
0.0039179
0.00542133
0.00710173
0.00892344
0.0104319
0.0114779
0.0122791
0.0129808
0.0136603
0.0143593
0.0151097
0.0159461
0.0169059
0.018032
0.0193681
0.0209587
0.0228479
0.0248522
0.0267047
0.0284027
0.0299478
0.031342
0.0325899
0.0337019
0.0346972
0.035609
0.0364889
0.0374138
0.0384987
0.0399242
0.0419818
0.045029
0.0489324
0.0517474
0.0494795
0.0373175
0.00644033
0.00337181
0.00331334
0.00326156
0.00321522
0.00317349
0.00313572
0.00310139
0.0030701
0.00304149
0.00301526
0.00299117
0.00296899
0.00294852
0.00292959
0.00291206
0.00289578
0.00288064
0.00286653
0.00285336
0.00284105
0.0028295
0.00281867
0.00280847
0.00279886
0.00278978
0.00278118
0.002773
0.00276519
0.00275765
0.00274983
0.0290869
0.0201236
0.0165498
0.0145458
0.0132354
0.0122991
0.0115903
0.0110316
0.0105781
0.0102014
0.0098828
0.00960934
0.00937174
0.00916315
0.00897838
0.00881343
0.00866512
0.00853092
0.00840877
0.00829695
0.008194
0.00809868
0.00800988
0.00792654
0.0078476
0.00777183
0.0076976
0.00762206
0.00754081
0.00744267
0.0688009
0.0517051
0.0428201
0.0374128
0.0337763
0.0311598
0.0291841
0.0276374
0.0263923
0.0253675
0.0245083
0.023777
0.0231464
0.0225965
0.0221121
0.0216818
0.0212964
0.0209488
0.0206332
0.0203447
0.0200794
0.0198339
0.0196052
0.0193905
0.0191872
0.0189928
0.0188045
0.0186186
0.018431
0.0182343
0.091071
0.0781325
0.0686579
0.0617758
0.0566479
0.0527129
0.0496117
0.047111
0.0450551
0.0433366
0.0418798
0.0406296
0.0395452
0.0385955
0.0377568
0.0370104
0.0363416
0.0357385
0.0351912
0.0346918
0.0342336
0.0338107
0.0334184
0.0330522
0.0327081
0.0323824
0.0320714
0.0317714
0.0314786
0.0311885
0.0997293
0.0928986
0.0862531
0.0804531
0.0755655
0.0714781
0.0680493
0.065152
0.0626827
0.0605596
0.0587187
0.0571097
0.055693
0.0544372
0.0533169
0.0523117
0.0514048
0.0505825
0.0498332
0.0491472
0.0485163
0.0479335
0.0473926
0.0468883
0.0464157
0.0459705
0.0455485
0.045146
0.0447595
0.0443846
0.102739
0.099672
0.0959566
0.0921375
0.0885032
0.0851726
0.0821754
0.0794997
0.077117
0.0749942
0.0730989
0.0714015
0.0698762
0.0685004
0.0672549
0.066123
0.0650907
0.0641458
0.063278
0.062478
0.0617381
0.0610514
0.0604119
0.059814
0.0592531
0.0587248
0.0582251
0.0577504
0.0572973
0.0568617
0.103741
0.102461
0.100638
0.098491
0.096209
0.0939238
0.091715
0.0896252
0.0876732
0.0858637
0.0841933
0.0826545
0.0812378
0.0799331
0.0787304
0.0776202
0.0765936
0.0756425
0.0747596
0.0739382
0.0731723
0.0724564
0.0717857
0.0711557
0.0705623
0.0700019
0.069471
0.0689668
0.068486
0.0680247
0.104068
0.103534
0.102697
0.101604
0.10033
0.0989466
0.0975161
0.0960826
0.0946769
0.0933187
0.0920197
0.0907858
0.0896191
0.0885195
0.087485
0.0865128
0.0855993
0.0847411
0.0839343
0.0831753
0.0824605
0.0817865
0.0811501
0.0805483
0.0799783
0.0794375
0.0789233
0.0784335
0.0779657
0.0775163
0.104172
0.103927
0.103542
0.10301
0.102348
0.101581
0.100738
0.0998491
0.0989355
0.0980162
0.0971049
0.0962116
0.0953434
0.0945048
0.0936984
0.0929257
0.092187
0.0914821
0.0908101
0.0901699
0.0895603
0.0889795
0.0884262
0.0878988
0.0873956
0.0869153
0.0864562
0.086017
0.085596
0.08519
0.104204
0.104065
0.103869
0.103604
0.103266
0.102858
0.102391
0.101877
0.101327
0.100753
0.100164
0.0995697
0.098976
0.0983883
0.0978106
0.0972459
0.0966962
0.0961631
0.0956472
0.0951492
0.094669
0.0942066
0.0937617
0.0933337
0.0929221
0.0925263
0.0921456
0.0917794
0.0914264
0.0910844
0.104213
0.104111
0.10399
0.10384
0.103657
0.103437
0.10318
0.102892
0.102574
0.102234
0.101876
0.101504
0.101124
0.100739
0.100353
0.0999682
0.099587
0.0992113
0.0988424
0.0984814
0.098129
0.0977857
0.0974519
0.0971278
0.0968134
0.0965087
0.0962136
0.0959278
0.0956507
0.0953807
0.104215
0.104125
0.104032
0.103929
0.103814
0.103682
0.103533
0.103366
0.103182
0.102983
0.102769
0.102544
0.10231
0.102069
0.101823
0.101575
0.101324
0.101074
0.100825
0.100578
0.100334
0.100094
0.0998576
0.0996264
0.0994003
0.0991794
0.0989638
0.0987537
0.0985486
0.0983474
0.104214
0.104129
0.104045
0.103961
0.103873
0.103781
0.103682
0.103575
0.10346
0.103337
0.103206
0.103068
0.102924
0.102774
0.102621
0.102463
0.102303
0.102142
0.10198
0.101817
0.101655
0.101494
0.101335
0.101178
0.101022
0.10087
0.10072
0.100573
0.100428
0.100285
0.104213
0.104129
0.104049
0.103971
0.103894
0.103817
0.10374
0.103661
0.103579
0.103494
0.103407
0.103316
0.103222
0.103125
0.103026
0.102925
0.102822
0.102717
0.102612
0.102506
0.1024
0.102294
0.102189
0.102085
0.101981
0.101879
0.101777
0.101678
0.101579
0.101482
0.104211
0.104128
0.104049
0.103973
0.1039
0.10383
0.103761
0.103694
0.103627
0.10356
0.103493
0.103425
0.103357
0.103289
0.103219
0.10315
0.103079
0.103009
0.102938
0.102866
0.102795
0.102725
0.102654
0.102584
0.102515
0.102446
0.102378
0.102311
0.102244
0.102178
0.10421
0.104126
0.104047
0.103973
0.103901
0.103833
0.103768
0.103705
0.103644
0.103585
0.103527
0.103471
0.103415
0.10336
0.103306
0.103253
0.1032
0.103147
0.103095
0.103043
0.102992
0.102942
0.102892
0.102843
0.102794
0.102746
0.102699
0.102653
0.102607
0.102561
0.104208
0.104125
0.104046
0.103971
0.1039
0.103833
0.103769
0.103708
0.10365
0.103594
0.10354
0.103488
0.103438
0.103389
0.103342
0.103297
0.103252
0.103209
0.103166
0.103125
0.103085
0.103045
0.103007
0.102969
0.102932
0.102896
0.102861
0.102826
0.102792
0.102758
0.104206
0.104123
0.104044
0.10397
0.103899
0.103832
0.103768
0.103708
0.10365
0.103596
0.103543
0.103493
0.103446
0.1034
0.103356
0.103314
0.103273
0.103234
0.103196
0.10316
0.103125
0.103091
0.103058
0.103026
0.102995
0.102966
0.102937
0.102909
0.102881
0.102854
0.104205
0.104121
0.104043
0.103968
0.103897
0.10383
0.103767
0.103707
0.10365
0.103595
0.103544
0.103494
0.103447
0.103403
0.10336
0.103319
0.10328
0.103243
0.103208
0.103173
0.103141
0.103109
0.103079
0.10305
0.103023
0.102996
0.10297
0.102945
0.102921
0.102897
0.104203
0.10412
0.104041
0.103966
0.103896
0.103829
0.103765
0.103705
0.103648
0.103594
0.103542
0.103493
0.103447
0.103403
0.103361
0.10332
0.103282
0.103246
0.103211
0.103178
0.103146
0.103116
0.103087
0.103059
0.103033
0.103007
0.102983
0.10296
0.102937
0.102915
0.104201
0.104118
0.104039
0.103964
0.103894
0.103827
0.103764
0.103703
0.103646
0.103592
0.103541
0.103492
0.103446
0.103401
0.103359
0.10332
0.103282
0.103245
0.103211
0.103178
0.103147
0.103117
0.103089
0.103061
0.103036
0.103011
0.102987
0.102965
0.102943
0.102921
0.104199
0.104116
0.104037
0.103962
0.103892
0.103825
0.103762
0.103702
0.103645
0.10359
0.103539
0.10349
0.103444
0.1034
0.103358
0.103318
0.10328
0.103244
0.10321
0.103177
0.103146
0.103116
0.103088
0.103061
0.103035
0.103011
0.102988
0.102965
0.102943
0.102922
0.104197
0.104114
0.104035
0.103961
0.10389
0.103823
0.10376
0.1037
0.103643
0.103588
0.103537
0.103488
0.103442
0.103398
0.103356
0.103316
0.103278
0.103242
0.103208
0.103175
0.103144
0.103115
0.103086
0.10306
0.103034
0.10301
0.102986
0.102964
0.102942
0.102921
0.104195
0.104112
0.104033
0.103958
0.103888
0.103821
0.103758
0.103698
0.103641
0.103586
0.103535
0.103486
0.10344
0.103396
0.103354
0.103314
0.103276
0.10324
0.103206
0.103173
0.103142
0.103113
0.103085
0.103058
0.103032
0.103008
0.102984
0.102962
0.10294
0.102919
0.104193
0.10411
0.104031
0.103956
0.103886
0.103819
0.103756
0.103695
0.103638
0.103584
0.103533
0.103484
0.103438
0.103394
0.103352
0.103312
0.103274
0.103238
0.103204
0.103171
0.10314
0.103111
0.103082
0.103056
0.10303
0.103006
0.102982
0.10296
0.102938
0.102917
0.104191
0.104108
0.104029
0.103954
0.103884
0.103817
0.103753
0.103693
0.103636
0.103582
0.103531
0.103482
0.103436
0.103392
0.10335
0.10331
0.103272
0.103236
0.103202
0.103169
0.103138
0.103108
0.10308
0.103053
0.103028
0.103003
0.10298
0.102958
0.102936
0.102915
0.104189
0.104105
0.104027
0.103952
0.103881
0.103815
0.103751
0.103691
0.103634
0.10358
0.103529
0.10348
0.103434
0.10339
0.103348
0.103308
0.10327
0.103234
0.1032
0.103167
0.103136
0.103106
0.103078
0.103051
0.103025
0.103001
0.102978
0.102955
0.102934
0.102912
0.104186
0.104103
0.104024
0.10395
0.103879
0.103812
0.103749
0.103689
0.103632
0.103578
0.103526
0.103478
0.103431
0.103387
0.103345
0.103306
0.103268
0.103232
0.103197
0.103165
0.103133
0.103104
0.103076
0.103049
0.103023
0.102999
0.102975
0.102953
0.102931
0.10291
0.104184
0.104101
0.104022
0.103947
0.103877
0.10381
0.103746
0.103686
0.103629
0.103575
0.103524
0.103475
0.103429
0.103385
0.103343
0.103303
0.103265
0.103229
0.103195
0.103162
0.103131
0.103101
0.103073
0.103046
0.103021
0.102996
0.102973
0.10295
0.102929
0.102907
0.104181
0.104098
0.104019
0.103945
0.103874
0.103807
0.103744
0.103684
0.103627
0.103573
0.103522
0.103473
0.103426
0.103382
0.10334
0.103301
0.103263
0.103227
0.103192
0.10316
0.103129
0.103099
0.103071
0.103044
0.103018
0.102994
0.10297
0.102948
0.102926
0.102905
0.104179
0.104096
0.104017
0.103942
0.103872
0.103805
0.103741
0.103681
0.103624
0.10357
0.103519
0.10347
0.103424
0.10338
0.103338
0.103298
0.10326
0.103224
0.10319
0.103157
0.103126
0.103096
0.103068
0.103041
0.103015
0.102991
0.102968
0.102945
0.102923
0.102902
0.104176
0.104093
0.104014
0.10394
0.103869
0.103802
0.103739
0.103679
0.103622
0.103568
0.103516
0.103468
0.103421
0.103377
0.103335
0.103295
0.103258
0.103222
0.103187
0.103154
0.103123
0.103094
0.103065
0.103038
0.103013
0.102988
0.102965
0.102942
0.102921
0.102899
0.104174
0.10409
0.104011
0.103937
0.103866
0.103799
0.103736
0.103676
0.103619
0.103565
0.103514
0.103465
0.103419
0.103374
0.103333
0.103293
0.103255
0.103219
0.103184
0.103152
0.103121
0.103091
0.103063
0.103036
0.10301
0.102985
0.102962
0.10294
0.102918
0.102896
0.104171
0.104087
0.104009
0.103934
0.103864
0.103797
0.103733
0.103673
0.103616
0.103562
0.103511
0.103462
0.103416
0.103372
0.10333
0.10329
0.103252
0.103216
0.103182
0.103149
0.103118
0.103088
0.10306
0.103033
0.103007
0.102983
0.102959
0.102937
0.102915
0.102894
0.104168
0.104085
0.104006
0.103931
0.103861
0.103794
0.10373
0.10367
0.103613
0.103559
0.103508
0.103459
0.103413
0.103369
0.103327
0.103287
0.103249
0.103213
0.103179
0.103146
0.103115
0.103085
0.103057
0.10303
0.103004
0.10298
0.102956
0.102934
0.102912
0.102891
0.104165
0.104082
0.104003
0.103928
0.103858
0.103791
0.103727
0.103667
0.10361
0.103556
0.103505
0.103456
0.10341
0.103366
0.103324
0.103284
0.103246
0.10321
0.103176
0.103143
0.103112
0.103082
0.103054
0.103027
0.103001
0.102977
0.102953
0.102931
0.102909
0.102887
0.104162
0.104078
0.104
0.103925
0.103855
0.103788
0.103724
0.103664
0.103607
0.103553
0.103502
0.103453
0.103407
0.103363
0.103321
0.103281
0.103243
0.103207
0.103173
0.10314
0.103109
0.103079
0.103051
0.103024
0.102998
0.102973
0.10295
0.102928
0.102906
0.102884
0.104159
0.104075
0.103996
0.103922
0.103851
0.103785
0.103721
0.103661
0.103604
0.10355
0.103499
0.10345
0.103404
0.103359
0.103318
0.103278
0.10324
0.103204
0.103169
0.103137
0.103105
0.103076
0.103047
0.10302
0.102995
0.10297
0.102947
0.102924
0.102903
0.102881
0.104155
0.104072
0.103993
0.103919
0.103848
0.103781
0.103718
0.103658
0.103601
0.103547
0.103495
0.103447
0.1034
0.103356
0.103314
0.103274
0.103236
0.1032
0.103166
0.103133
0.103102
0.103072
0.103044
0.103017
0.102991
0.102967
0.102943
0.102921
0.102899
0.102878
0.104152
0.104069
0.10399
0.103915
0.103845
0.103778
0.103714
0.103654
0.103597
0.103543
0.103492
0.103443
0.103397
0.103353
0.103311
0.103271
0.103233
0.103197
0.103163
0.10313
0.103099
0.103069
0.103041
0.103014
0.102988
0.102963
0.10294
0.102917
0.102896
0.102874
0.104148
0.104065
0.103986
0.103912
0.103841
0.103774
0.103711
0.103651
0.103594
0.10354
0.103488
0.10344
0.103393
0.103349
0.103307
0.103267
0.10323
0.103193
0.103159
0.103126
0.103095
0.103065
0.103037
0.10301
0.102984
0.10296
0.102936
0.102914
0.102892
0.102871
0.104145
0.104061
0.103983
0.103908
0.103838
0.103771
0.103707
0.103647
0.10359
0.103536
0.103485
0.103436
0.10339
0.103346
0.103304
0.103264
0.103226
0.10319
0.103155
0.103123
0.103092
0.103062
0.103033
0.103006
0.102981
0.102956
0.102933
0.10291
0.102888
0.102867
0.104141
0.104058
0.103979
0.103904
0.103834
0.103767
0.103704
0.103644
0.103587
0.103532
0.103481
0.103432
0.103386
0.103342
0.1033
0.10326
0.103222
0.103186
0.103152
0.103119
0.103088
0.103058
0.10303
0.103003
0.102977
0.102952
0.102929
0.102906
0.102885
0.102863
0.104137
0.104054
0.103975
0.1039
0.10383
0.103763
0.1037
0.10364
0.103583
0.103529
0.103477
0.103428
0.103382
0.103338
0.103296
0.103256
0.103218
0.103182
0.103148
0.103115
0.103084
0.103054
0.103026
0.102999
0.102973
0.102949
0.102925
0.102903
0.102881
0.102859
0.104133
0.10405
0.103971
0.103897
0.103826
0.103759
0.103696
0.103636
0.103579
0.103525
0.103473
0.103425
0.103378
0.103334
0.103292
0.103252
0.103214
0.103178
0.103144
0.103111
0.10308
0.10305
0.103022
0.102995
0.102969
0.102945
0.102921
0.102899
0.102877
0.102855
0.104129
0.104046
0.103967
0.103892
0.103822
0.103755
0.103692
0.103632
0.103575
0.103521
0.103469
0.10342
0.103374
0.10333
0.103288
0.103248
0.10321
0.103174
0.10314
0.103107
0.103076
0.103046
0.103018
0.102991
0.102965
0.10294
0.102917
0.102894
0.102873
0.102851
0.104125
0.104041
0.103963
0.103888
0.103818
0.103751
0.103687
0.103627
0.10357
0.103516
0.103465
0.103416
0.10337
0.103326
0.103284
0.103244
0.103206
0.10317
0.103136
0.103103
0.103072
0.103042
0.103014
0.102987
0.102961
0.102936
0.102913
0.10289
0.102868
0.102847
0.10412
0.104037
0.103958
0.103884
0.103813
0.103746
0.103683
0.103623
0.103566
0.103512