/*--------------------------------*- C++ -*----------------------------------*\
| =========                 |                                                 |
| \\      /  F ield         | OpenFOAM: The Open Source CFD Toolbox           |
|  \\    /   O peration     | Version:  2.2.0                                 |
|   \\  /    A nd           | Web:      www.OpenFOAM.org                      |
|    \\/     M anipulation  |                                                 |
\*---------------------------------------------------------------------------*/
FoamFile
{
    version     2.0;
    format      ascii;
    class       volScalarField;
    location    "1000";
    object      epsilon;
}
// * * * * * * * * * * * * * * * * * * * * * * * * * * * * * * * * * * * * * //

dimensions      [0 2 -3 0 0 0 0];

internalField   nonuniform List<scalar> 
7600
(
0.000320933
0.000301557
0.000331788
0.00072953
0.00128036
0.00190097
0.00259808
0.00337415
0.00422784
0.00515561
0.0061522
0.00721104
0.00832439
0.0094834
0.0106782
0.011898
0.0131317
0.0143681
0.0155966
0.0168065
0.0179887
0.0190375
0.0198896
0.0205602
0.0210341
0.0213067
0.0213624
0.0211768
0.02072
0.0199618
0.0188773
0.0174539
0.0156983
0.0136436
0.0113546
0.00893042
0.00650409
0.00424806
0.00232414
0.000464206
0.000661728
0.000672066
0.000916408
0.00124687
0.00166851
0.00203806
0.00235913
0.00264408
0.00290049
0.00313527
0.00335439
0.00356325
0.00376672
0.00396929
0.00417525
0.004389
0.00461528
0.00485949
0.00512814
0.00542909
0.00577064
0.00613092
0.00649562
0.00686035
0.00719285
0.00749099
0.00775032
0.00796344
0.00811926
0.00820253
0.00819403
0.00807123
0.00780967
0.00738502
0.00677663
0.00597273
0.00497661
0.00381498
0.002562
0.00146426
0.00139882
0.00112433
0.00133167
0.00165223
0.00200063
0.00227117
0.00246393
0.00259811
0.00269168
0.00276067
0.00281797
0.00287362
0.00293525
0.0030087
0.00309865
0.00320922
0.00334448
0.00350886
0.00370778
0.00394846
0.00424107
0.00457025
0.00491472
0.00526757
0.00562319
0.00598234
0.00634272
0.006697
0.00703148
0.00732527
0.00755061
0.00767422
0.00766017
0.00747422
0.00709018
0.00649786
0.00571157
0.00478043
0.00375286
0.00284678
0.00252967
0.00166816
0.00178636
0.00202591
0.00228597
0.00247958
0.00259955
0.00266297
0.00268992
0.00269877
0.00270398
0.00271606
0.00274237
0.00278799
0.00285667
0.00295149
0.00307539
0.00323165
0.00342449
0.0036601
0.00394831
0.00427425
0.00461477
0.00496795
0.00533559
0.00571917
0.00611603
0.00651738
0.00690697
0.00726087
0.00754854
0.00773555
0.00778778
0.00767674
0.00738561
0.00691489
0.00628623
0.00555024
0.00474069
0.00428303
0.00364151
0.00222356
0.00224738
0.00239168
0.00256034
0.00268322
0.00274829
0.00276749
0.00275847
0.00273822
0.00272034
0.00271469
0.00272802
0.00276485
0.00282833
0.00292084
0.00304445
0.00320137
0.00339449
0.00362831
0.00391088
0.0042266
0.00455214
0.0048912
0.00524845
0.00562659
0.00602372
0.00643133
0.00683303
0.00720455
0.00751545
0.00773253
0.00782469
0.00776846
0.00755316
0.00718507
0.00669008
0.00612921
0.0055786
0.00584052
0.0048549
0.00272787
0.00266554
0.0027289
0.00281613
0.00287447
0.002892
0.00287651
0.00284209
0.00280303
0.00277116
0.00275527
0.00276145
0.00279373
0.00285471
0.00294603
0.00306878
0.00322379
0.00341211
0.00363579
0.00390001
0.00418882
0.00448134
0.00478795
0.00511594
0.00547065
0.00585242
0.0062544
0.00666099
0.00704786
0.00738395
0.00763548
0.00777147
0.00776963
0.00762168
0.00733771
0.00695096
0.00654697
0.00629323
0.00752763
0.00610275
0.00316342
0.0030116
0.0030144
0.00303786
0.00304188
0.00301813
0.00297249
0.00291627
0.00286123
0.00281736
0.00279227
0.00279129
0.00281782
0.00287377
0.00295987
0.00307594
0.00322113
0.00339433
0.00359478
0.00382461
0.0040696
0.00431603
0.00458032
0.00487312
0.00520307
0.00557304
0.00597771
0.00640162
0.00681906
0.00719634
0.00749651
0.00768575
0.00774014
0.00765174
0.00743447
0.0071327
0.00686645
0.00692777
0.00935066
0.00732678
0.00352638
0.00327443
0.00323296
0.00321117
0.00317317
0.00311502
0.00304259
0.0029658
0.00289466
0.00283772
0.00280148
0.00279042
0.00280715
0.00285268
0.00292664
0.00302742
0.00315246
0.00329856
0.00346255
0.00364461
0.00383535
0.0040321
0.00425548
0.00451927
0.00483479
0.00520686
0.00563095
0.00609084
0.00655824
0.00699517
0.00735942
0.0076121
0.00772564
0.00769121
0.00752654
0.00728914
0.0071382
0.00751285
0.0113107
0.00848078
0.00381688
0.00345345
0.00337782
0.00332642
0.00325858
0.00317328
0.00307745
0.00298078
0.00289247
0.00282014
0.00276941
0.00274387
0.00274524
0.0027735
0.00282712
0.00290319
0.00299767
0.0031059
0.00322349
0.0033506
0.00348558
0.00363833
0.00383085
0.00407867
0.00439477
0.00478527
0.00524621
0.00576044
0.00629653
0.00681106
0.00725488
0.00758206
0.00775968
0.00777686
0.00765473
0.00746421
0.00740421
0.00807473
0.0134073
0.00952817
0.00403815
0.00355479
0.00344957
0.00337983
0.00329266
0.00318722
0.00307156
0.00295589
0.00284935
0.00275915
0.00269027
0.00264551
0.00262568
0.00262978
0.00265527
0.0026982
0.00275373
0.00281671
0.0028831
0.00295523
0.00304098
0.00316148
0.00333668
0.00358238
0.00391255
0.00433478
0.00484646
0.00543021
0.00605159
0.0066609
0.00720031
0.00761479
0.00786413
0.00793406
0.00784831
0.00769042
0.00769727
0.00863639
0.0156399
0.0104422
0.00419513
0.00358835
0.00345439
0.00337323
0.00327487
0.00315558
0.00302383
0.00289056
0.00276533
0.00265535
0.00256526
0.00249725
0.00245134
0.00242575
0.00241719
0.00242125
0.00243301
0.00244802
0.00246409
0.00248757
0.00253593
0.0026375
0.00280733
0.00306072
0.00341282
0.00387398
0.00444466
0.00510892
0.0058299
0.00655088
0.00720331
0.00772047
0.00805248
0.00817996
0.00812809
0.00799197
0.00804372
0.0092196
0.0180098
0.0112054
0.00429346
0.00356553
0.00340204
0.00331298
0.00320931
0.00308165
0.00293771
0.00278894
0.00264553
0.00251502
0.00240198
0.00230825
0.00223336
0.00217502
0.00212966
0.00209297
0.00206075
0.00203023
0.00200224
0.00198795
0.00201273
0.00210614
0.00227721
0.00254097
0.002915
0.00341457
0.00404589
0.00479682
0.00562936
0.006479
0.00726403
0.00790267
0.00833227
0.00852612
0.00850945
0.00838779
0.0084659
0.00984628
0.0205215
0.0118082
0.00433896
0.00349794
0.00330419
0.00320865
0.00310372
0.00297248
0.0028205
0.00265919
0.00249933
0.00234901
0.00221305
0.00209329
0.00198911
0.00189816
0.00181704
0.00174215
0.00167065
0.00160207
0.00154062
0.00150184
0.00151574
0.00160649
0.00177828
0.00204706
0.00243468
0.00296394
0.00365017
0.00448845
0.00544166
0.00643712
0.00737696
0.00816011
0.00870711
0.00898094
0.00900515
0.00889461
0.00898478
0.01054
0.0231853
0.0122477
0.00433731
0.00339641
0.00317295
0.00307139
0.00296805
0.00283753
0.00268199
0.00251201
0.00233873
0.0021709
0.00201392
0.00187004
0.00173895
0.00161869
0.00150657
0.00140013
0.00129832
0.00120305
0.00112144
0.00107156
0.00108368
0.00117149
0.00133729
0.00159931
0.00198519
0.0025278
0.00325544
0.0041751
0.00525421
0.00641227
0.00753206
0.00848785
0.00917805
0.00955147
0.00962766
0.00952972
0.00962263
0.0113282
0.0260209
0.0125249
0.00429375
0.0032704
0.00301961
0.00291251
0.00281287
0.00268701
0.00253267
0.00235872
0.00217623
0.00199463
0.00182017
0.00165592
0.00150241
0.00135856
0.00122282
0.0010942
0.000973457
0.000864464
0.000775871
0.000725252
0.00074108
0.000821983
0.000972493
0.00121346
0.00157865
0.00211247
0.00286027
0.00384732
0.00505178
0.00638774
0.00771548
0.00887806
0.00974484
0.0102452
0.0103915
0.0103138
0.010406
0.0122445
0.0290623
0.0126425
0.00421277
0.00312755
0.00285381
0.00274211
0.00264791
0.00253025
0.00238196
0.00220934
0.00202279
0.00183222
0.00164492
0.00146521
0.00129488
0.00113421
0.000983114
0.000842216
0.000713873
0.00060313
0.000518582
0.000474783
0.000493416
0.000563138
0.000691055
0.000899276
0.00122598
0.00172662
0.00246666
0.00349769
0.00481862
0.0063442
0.00791031
0.00932091
0.0104072
0.0110718
0.0113158
0.0112741
0.0113697
0.0133333
0.0323661
0.0126017
0.00409785
0.00297345
0.00268291
0.00256824
0.00248097
0.00237458
0.00223698
0.00207119
0.00188625
0.00169216
0.00149725
0.00130729
0.00112575
0.000954623
0.000795506
0.000650584
0.000523395
0.000419248
0.000345281
0.000311576
0.000329187
0.000386039
0.00048913
0.00065942
0.000935909
0.00138159
0.00208233
0.003124
0.00454105
0.00626125
0.00809739
0.00980547
0.0111663
0.012046
0.0124282
0.0124494
0.0125623
0.0146554
0.0360232
0.0123991
0.00395115
0.00281168
0.00251182
0.0023965
0.00231744
0.00222469
0.0021018
0.00194813
0.0017706
0.00157872
0.00138156
0.0011864
0.000998549
0.000821931
0.000659941
0.000516144
0.000394731
0.000300404
0.000237889
0.000212696
0.000228264
0.000273827
0.000354985
0.000489524
0.00071313
0.00109006
0.00172164
0.00273242
0.00421062
0.00611921
0.00825604
0.0103205
0.0120269
0.013191
0.0137696
0.0138969
0.0140547
0.0162986
0.0401777
0.0120226
0.00376875
0.00264351
0.00234334
0.00223035
0.00216061
0.0020831
0.00197807
0.00184119
0.00167665
0.00149271
0.00129865
0.00110296
0.000912729
0.000733993
0.000571895
0.000431165
0.000316239
0.000230751
0.000176982
0.000157365
0.000171427
0.000209
0.000273902
0.000380003
0.000556792
0.000862748
0.0014041
0.00233952
0.0038275
0.00590077
0.00836377
0.0108538
0.0129983
0.0145417
0.0154016
0.0157024
0.0159542
0.0183946
0.0450573
0.0114798
0.00358552
0.0024802
0.00218268
0.00207314
0.00201265
0.00195069
0.00186539
0.00174913
0.00160294
0.00143302
0.00124801
0.00105688
0.000867129
0.000688355
0.000527104
0.000389032
0.000278705
0.000198784
0.000149622
0.000132523
0.000145916
0.000178572
0.000232953
0.000319566
0.000461093
0.000705435
0.00115076
0.00197285
0.00340417
0.00559249
0.0083934
0.011388
0.0140915
0.0161475
0.0174143
0.0179953
0.0184265
0.0211493
0.0510239
0.0108151
0.00342321
0.00234018
0.00204611
0.00193963
0.00188636
0.00183717
0.0017694
0.00167317
0.00154681
0.00139421
0.00122268
0.001041
0.000857829
0.00068293
0.000524533
0.00038924
0.000281757
0.000204233
0.000156154
0.00013805
0.0001483
0.000176996
0.000224995
0.000300205
0.000419755
0.00062033
0.000982623
0.00167343
0.00297513
0.00519431
0.00831424
0.0118947
0.0153147
0.0180726
0.0199368
0.020972
0.0217309
0.0248855
0.0586727
0.0100937
0.0032724
0.0022276
0.00193971
0.00183637
0.0017884
0.00174863
0.0016945
0.00161496
0.00150645
0.00137088
0.00121411
0.00104423
0.000870189
0.000701822
0.000548132
0.000416342
0.000311332
0.000235157
0.00018734
0.000167707
0.000174
0.000199097
0.000243199
0.000312479
0.000420497
0.000596162
0.000905456
0.00149723
0.00266234
0.00479797
0.00811213
0.0122855
0.0165415
0.0201862
0.0228631
0.0245749
0.0258736
0.029655
0.0680651
0.00933293
0.00312953
0.00213566
0.00185701
0.00175746
0.00171384
0.00168119
0.00163764
0.00157167
0.00147852
0.00135859
0.00121637
0.00105906
0.000895436
0.000735157
0.000587432
0.000459763
0.000357168
0.000281834
0.000233644
0.000212347
0.000215747
0.000238342
0.000280343
0.00034699
0.000449609
0.00061175
0.000887799
0.00140809
0.00245724
0.0045017
0.00792588
0.0125471
0.0176056
0.0222679
0.0259489
0.0285721
0.0306728
0.0354476
0.0789401
0.00855151
0.00299214
0.00205986
0.00179357
0.00169894
0.00165948
0.00163268
0.00159761
0.00154278
0.00146272
0.00135677
0.00122823
0.0010834
0.000930557
0.000779015
0.000637864
0.000514661
0.00041454
0.000339968
0.000291432
0.00026947
0.000271007
0.000292158
0.000333353
0.000399407
0.000500354
0.000656198
0.000912569
0.00138278
0.00233526
0.00427496
0.00774664
0.0127515
0.0185588
0.0242434
0.0291394
0.0329539
0.0361714
0.0422398
0.0916123
0.00776526
0.00285848
0.001997
0.0017463
0.00165802
0.00162311
0.00160163
0.00157376
0.00152833
0.00145955
0.00136599
0.00125003
0.00111709
0.000974825
0.000832079
0.000697661
0.000579052
0.000481504
0.000407848
0.00035933
0.000337656
0.000338249
0.000358937
0.000400409
0.000467381
0.000569306
0.000724133
0.000971457
0.00141064
0.00229002
0.00412571
0.00758653
0.0128811
0.0193866
0.0261391
0.0323724
0.0377003
0.0424448
0.0502988
0.106568
0.00698764
0.00272727
0.00194453
0.00171273
0.0016325
0.00160294
0.00158684
0.00156558
0.00152847
0.00146964
0.00138717
0.00128268
0.00116085
0.00102866
0.000894415
0.000766589
0.000652528
0.000557606
0.000485058
0.00043693
0.000415636
0.000416271
0.000437401
0.000480128
0.0005494
0.000654724
0.000813337
0.00106148
0.00148863
0.00232394
0.00407485
0.00748635
0.0129654
0.0200764
0.0279136
0.0356527
0.0427858
0.0495456
0.0598203
0.12434
0.00622991
0.00259732
0.0019002
0.0016907
0.00162044
0.00159738
0.00158718
0.00157251
0.00154323
0.00149355
0.00142122
0.00132728
0.00121576
0.00109299
0.000966768
0.000845191
0.000735467
0.000643091
0.0005717
0.000524104
0.000503367
0.000504425
0.000526578
0.000571529
0.000644811
0.00075666
0.000925029
0.00118573
0.00162347
0.0024529
0.00416021
0.00751364
0.0130785
0.0206703
0.0295605
0.0389532
0.0482417
0.057535
0.0710132
0.145583
0.00550125
0.00246745
0.00186173
0.00167809
0.00161993
0.0016048
0.00160145
0.00159385
0.00157246
0.00153162
0.00146889
0.00138484
0.00128292
0.0011689
0.00105009
0.000934256
0.000828457
0.000738307
0.000667814
0.000620493
0.000600105
0.000601881
0.0006259
0.00067478
0.000755193
0.000879095
0.00106708
0.00135827
0.00183927
0.00271797
0.00445184
0.00777878
0.013358
0.0212911
0.0311537
0.0422996
0.0540896
0.0665363
0.0841503
0.171156
0.00480904
0.00233633
0.00182659
0.00167249
0.00162881
0.00162338
0.00162824
0.00162868
0.00161577
0.00158398
0.0015307
0.00145614
0.00136324
0.00125729
0.0011452
0.00103439
0.000931851
0.000843308
0.00077315
0.000725644
0.000705535
0.000709274
0.000737332
0.000794077
0.000888392
0.00103578
0.0012627
0.00161724
0.00219672
0.0032111
0.00508034
0.0084597
0.0140286
0.0221729
0.0328847
0.045821
0.0604215
0.0766677
0.0995858
0.202096
0.00415915
0.00220245
0.00179175
0.00167097
0.00164452
0.00165101
0.00166593
0.00167591
0.00167257
0.00165049
0.00160688
0.00154163
0.00145726
0.00135868
0.00125244
0.00114579
0.00104566
0.000958046
0.000887899
0.000840605
0.000822608
0.000833102
0.000870495
0.000944564
0.00106845
0.00126502
0.00157284
0.00205807
0.00283885
0.00412864
0.00628719
0.00983913
0.0154234
0.0236795
0.0350905
0.0497867
0.0674518
0.0881407
0.117552
0.239326
0.00355617
0.00206409
0.00175351
0.00166987
0.00166395
0.00168523
0.00171272
0.00173434
0.00174215
0.00173081
0.00169735
0.00164137
0.00156508
0.00147314
0.00137194
0.00126874
0.0011707
0.00108441
0.00101598
0.000972961
0.000964669
0.000992243
0.00105515
0.00117034
0.00136208
0.00166989
0.00215642
0.00291744
0.00409178
0.00586836
0.00849932
0.0123508
0.0180003
0.0263
0.0382519
0.0546224
0.0755502
0.101324
0.138494
0.284148
0.00300371
0.00191935
0.00170754
0.00166488
0.00168359
0.00172351
0.00176691
0.00180284
0.0018238
0.00182452
0.00180191
0.00175538
0.00168707
0.00160167
0.00150578
0.00140708
0.00131352
0.00123306
0.00117425
0.00114926
0.00117251
0.00124776
0.00138134
0.00159657
0.00195665
0.00253528
0.00343226
0.00476451
0.00664225
0.00915218
0.0123954
0.0166064
0.0223325
0.0306104
0.0429497
0.0608834
0.085244
0.116764
0.163028
0.338145
0.00250468
0.00176626
0.00164916
0.00165157
0.00170028
0.00176392
0.00182741
0.0018809
0.00191746
0.00193213
0.00192194
0.00188647
0.00182822
0.00175251
0.00166675
0.00157974
0.00150118
0.00144202
0.0014163
0.00144738
0.00156165
0.00177055
0.00210063
0.00259056
0.0034021
0.00464998
0.00643069
0.00878465
0.0116767
0.0150343
0.0188496
0.0233202
0.0290281
0.0371825
0.0497679
0.0691741
0.0971725
0.135194
0.191992
0.403294
0.00206148
0.00160305
0.00157432
0.00162673
0.00171252
0.00180631
0.001895
0.0019703
0.00202675
0.00206034
0.00206888
0.00205267
0.00201539
0.00196372
0.00190672
0.0018555
0.0018238
0.00183017
0.00190388
0.00210109
0.00248375
0.00308534
0.0039785
0.005279
0.00722048
0.00985048
0.0130711
0.0167101
0.0205745
0.0245313
0.0285973
0.0330363
0.0385155
0.046408
0.0591354
0.0800054
0.111983
0.157488
0.226479
0.482154
0.00167719
0.00142977
0.0014825
0.00159204
0.00172434
0.0018568
0.00197888
0.00208621
0.00217699
0.00224938
0.00230255
0.00233776
0.00236128
0.00238227
0.00241321
0.00247166
0.00258397
0.00279358
0.00317932
0.00389961
0.0051048
0.00683381
0.0091879
0.0123336
0.016303
0.0207177
0.0252768
0.0297405
0.0339564
0.0378934
0.0416871
0.0457086
0.0507208
0.0582434
0.0711032
0.0935869
0.130152
0.184576
0.267891
0.578185
0.00135681
0.00124941
0.00138147
0.00156064
0.00175502
0.00194511
0.00212934
0.00231402
0.00250483
0.00270178
0.00290422
0.00311291
0.00334506
0.00361447
0.00394467
0.00437644
0.00498017
0.00587849
0.00728593
0.00957534
0.0128926
0.0169973
0.0218488
0.0274617
0.0330465
0.0383038
0.0430706
0.0472742
0.0509229
0.0541276
0.0571404
0.0604232
0.0648182
0.0719718
0.0850967
0.109545
0.151696
0.217246
0.318062
0.696396
0.00111639
0.00108313
0.00131504
0.00160131
0.00192137
0.00227462
0.00269983
0.00323275
0.00389045
0.0046579
0.00552449
0.00646939
0.00758975
0.0088685
0.0103418
0.0120941
0.0142713
0.0170972
0.0208813
0.0259956
0.0320792
0.0384472
0.0450639
0.0510966
0.0562437
0.0605564
0.0641029
0.0669658
0.0692673
0.0712074
0.0731079
0.0754869
0.079243
0.0861298
0.0997282
0.126573
0.175647
0.25565
0.379432
0.845304
0.00106583
0.00100871
0.00152309
0.00219959
0.00319617
0.00464001
0.00690407
0.0101138
0.0141803
0.0186362
0.0231701
0.0273461
0.0319238
0.0360281
0.0397488
0.043252
0.046784
0.0506245
0.0550336
0.0601856
0.0656135
0.0709475
0.0755496
0.0790103
0.0816088
0.0835119
0.0848367
0.0856936
0.0862297
0.0866685
0.0873532
0.0888214
0.0919972
0.0986979
0.112788
0.141976
0.198654
0.297115
0.455207
1.04671
0.00138675
0.00204108
0.00531191
0.0102063
0.0189383
0.0328686
0.0559323
0.083311
0.108447
0.125303
0.135304
0.139444
0.13906
0.135467
0.130046
0.124014
0.118303
0.113513
0.109955
0.107684
0.106761
0.1065
0.105851
0.105016
0.104043
0.102942
0.101726
0.100443
0.0992043
0.0982124
0.0977937
0.098468
0.101132
0.107555
0.121595
0.15165
0.214257
0.336296
0.566599
1.39827
0.00616101
0.0221996
0.054165
0.109909
0.193311
0.309472
0.456854
0.547354
0.5555
0.520007
0.466313
0.408789
0.354548
0.306696
0.266092
0.23242
0.205024
0.183083
0.165746
0.152184
0.142356
0.134701
0.12858
0.123528
0.11921
0.115406
0.111989
0.108922
0.106263
0.104174
0.102942
0.103037
0.105267
0.111211
0.124341
0.152983
0.216685
0.366463
0.746163
2.01791
0.289387
0.274592
0.261918
0.250913
0.241269
0.232756
0.225195
0.218447
0.212397
0.206951
0.20203
0.197568
0.19351
0.189807
0.186419
0.183311
0.180451
0.177812
0.175373
0.173112
0.17101
0.169053
0.167225
0.165514
0.163908
0.162396
0.160967
0.159611
0.15831
0.156966
0.0340927
0.0458876
0.0517537
0.0546306
0.0558312
0.0560577
0.0557141
0.0550422
0.0541906
0.0532517
0.0522832
0.0513206
0.0503857
0.0494913
0.0486442
0.0478476
0.0471024
0.0464079
0.0457628
0.0451651
0.044613
0.0441047
0.0436388
0.0432146
0.0428326
0.0424955
0.0422098
0.0419898
0.0418616
0.0418738
0.014712
0.0187829
0.0216692
0.0236516
0.0249748
0.0258231
0.0263305
0.0265943
0.0266845
0.0266524
0.026535
0.0263593
0.0261451
0.025907
0.0256553
0.0253978
0.0251401
0.0248861
0.0246389
0.0244004
0.0241722
0.0239555
0.0237511
0.0235595
0.0233814
0.0232181
0.0230716
0.0229442
0.0228392
0.0227599
0.011194
0.0126731
0.0139697
0.0150161
0.0158267
0.0164371
0.0168844
0.0172014
0.0174158
0.0175498
0.0176215
0.0176452
0.0176322
0.0175915
0.0175301
0.0174538
0.0173668
0.0172727
0.0171743
0.0170737
0.0169728
0.0168729
0.0167752
0.0166807
0.0165903
0.0165049
0.0164255
0.0163528
0.0162881
0.0162319
0.0102523
0.0107505
0.0112927
0.0117961
0.0122304
0.0125898
0.0128783
0.0131041
0.0132759
0.0134024
0.0134913
0.0135494
0.0135824
0.0135952
0.0135918
0.0135756
0.0135495
0.0135156
0.013476
0.0134322
0.0133856
0.0133373
0.0132883
0.0132393
0.0131911
0.0131443
0.0130995
0.0130572
0.0130177
0.0129814
0.00996467
0.0100608
0.0102297
0.0104239
0.0106153
0.0107894
0.0109402
0.011066
0.0111677
0.0112473
0.0113074
0.0113504
0.0113788
0.011395
0.0114009
0.0113983
0.0113888
0.0113737
0.0113542
0.0113314
0.0113059
0.0112787
0.0112503
0.0112213
0.0111922
0.0111634
0.0111352
0.0111081
0.0110821
0.0110576
0.00987369
0.00980575
0.0097923
0.00981408
0.00985465
0.00990246
0.00995014
0.00999344
0.0100301
0.0100594
0.010081
0.0100954
0.0101032
0.0101051
0.0101019
0.0100943
0.010083
0.0100687
0.0100519
0.0100333
0.0100131
0.00999198
0.00997016
0.00994801
0.00992581
0.00990381
0.00988223
0.00986124
0.00984097
0.00982148
0.00984487
0.00971268
0.00961478
0.00954551
0.00949767
0.00946462
0.00944106
0.00942306
0.00940792
0.00939382
0.00937964
0.0093647
0.00934868
0.00933144
0.00931301
0.00929349
0.00927303
0.0092518
0.00922999
0.0092078
0.0091854
0.00916295
0.00914063
0.00911856
0.00909689
0.00907572
0.00905514
0.00903524
0.00901605
0.00899757
0.00983581
0.00967968
0.00954522
0.00943133
0.00933547
0.00925454
0.00918552
0.00912577
0.0090731
0.00902583
0.00898264
0.00894257
0.00890491
0.00886916
0.00883495
0.00880205
0.00877027
0.00873952
0.00870972
0.00868084
0.00865286
0.00862578
0.0085996
0.00857432
0.00854997
0.00852655
0.00850406
0.0084825
0.00846186
0.00844205
0.009833
0.00966835
0.0095191
0.009385
0.00926516
0.00915822
0.00906264
0.00897685
0.00889942
0.00882907
0.00876472
0.00870545
0.00865053
0.00859935
0.00855142
0.00850635
0.00846382
0.00842358
0.00838542
0.00834917
0.00831469
0.00828187
0.00825062
0.00822085
0.00819249
0.00816548
0.00813976
0.00811527
0.00809195
0.00806966
0.00983213
0.00966458
0.00950971
0.00936712
0.00923626
0.00911637
0.0090066
0.00890601
0.00881368
0.00872873
0.00865035
0.00857782
0.00851049
0.0084478
0.00838926
0.00833447
0.00828307
0.00823474
0.00818922
0.00814628
0.00810572
0.00806738
0.00803109
0.00799673
0.00796417
0.00793331
0.00790404
0.00787628
0.00784992
0.00782479
0.00983187
0.00966337
0.00950647
0.00936055
0.009225
0.00909918
0.00898246
0.00887418
0.00877368
0.00868032
0.0085935
0.00851263
0.00843721
0.00836675
0.00830083
0.00823905
0.00818107
0.00812659
0.00807533
0.00802704
0.00798151
0.00793854
0.00789795
0.00785958
0.0078233
0.00778895
0.00775644
0.00772564
0.00769642
0.00766859
0.00983179
0.00966299
0.0095054
0.00935825
0.00922083
0.0090925
0.00897265
0.0088607
0.0087561
0.00865832
0.00856685
0.00848123
0.00840101
0.00832578
0.00825518
0.00818884
0.00812647
0.00806776
0.00801246
0.00796033
0.00791114
0.0078647
0.00782082
0.00777934
0.00774011
0.00770299
0.00766783
0.00763453
0.00760294
0.00757284
0.00983176
0.00966287
0.00950506
0.00935748
0.00921936
0.00909004
0.00896888
0.00885532
0.00874883
0.00864891
0.0085551
0.00846699
0.00838417
0.00830628
0.00823298
0.00816394
0.00809889
0.00803755
0.00797966
0.00792502
0.00787339
0.0078246
0.00777845
0.00773479
0.00769346
0.00765432
0.00761724
0.00758208
0.00754871
0.0075169
0.00983176
0.00966284
0.00950495
0.00935722
0.00921887
0.00908918
0.00896751
0.00885329
0.00874598
0.00864511
0.00855023
0.00846092
0.00837682
0.00829756
0.00822284
0.00815234
0.0080858
0.00802295
0.00796357
0.00790743
0.00785433
0.00780408
0.00775651
0.00771145
0.00766876
0.00762829
0.00758992
0.00755351
0.00751893
0.00748593
0.00983175
0.00966283
0.00950492
0.00935715
0.00921871
0.00908889
0.00896703
0.00885256
0.00874494
0.00864367
0.00854833
0.00845849
0.0083738
0.00829391
0.00821849
0.00814727
0.00807997
0.00801634
0.00795616
0.00789921
0.00784529
0.00779422
0.00774583
0.00769996
0.00765646
0.0076152
0.00757604
0.00753886
0.00750352
0.00746978
0.00983175
0.00966282
0.00950491
0.00935712
0.00921866
0.00908879
0.00896688
0.00885231
0.00874457
0.00864316
0.00854763
0.00845758
0.00837264
0.00829247
0.00821675
0.0081452
0.00807755
0.00801355
0.00795297
0.00789562
0.00784129
0.00778979
0.00774097
0.00769467
0.00765074
0.00760904
0.00756944
0.00753183
0.00749605
0.00746188
0.00983175
0.00966282
0.00950491
0.00935712
0.00921865
0.00908877
0.00896683
0.00885224
0.00874445
0.00864299
0.00854739
0.00845726
0.00837223
0.00829195
0.00821611
0.00814442
0.00807661
0.00801245
0.00795171
0.00789417
0.00783964
0.00778795
0.00773893
0.00769241
0.00764826
0.00760634
0.00756652
0.00752868
0.00749268
0.00745827
0.00983175
0.00966282
0.00950491
0.00935712
0.00921865
0.00908876
0.00896682
0.00885222
0.00874442
0.00864294
0.00854732
0.00845717
0.0083721
0.00829178
0.0082159
0.00814415
0.00807629
0.00801207
0.00795126
0.00789364
0.00783904
0.00778726
0.00773814
0.00769153
0.00764728
0.00760526
0.00756533
0.00752739
0.00749127
0.00745675
0.00983175
0.00966283
0.00950492
0.00935713
0.00921865
0.00908877
0.00896682
0.00885222
0.00874442
0.00864293
0.00854731
0.00845715
0.00837208
0.00829175
0.00821585
0.00814409
0.00807621
0.00801197
0.00795113
0.00789349
0.00783885
0.00778704
0.00773789
0.00769124
0.00764695
0.00760489
0.00756492
0.00752692
0.00749076
0.00745619
0.00983175
0.00966283
0.00950492
0.00935713
0.00921866
0.00908878
0.00896683
0.00885223
0.00874443
0.00864295
0.00854733
0.00845717
0.00837209
0.00829176
0.00821586
0.0081441
0.00807622
0.00801197
0.00795113
0.00789348
0.00783883
0.00778701
0.00773785
0.00769119
0.00764688
0.0076048
0.00756481
0.0075268
0.00749062
0.00745602
0.00983176
0.00966283
0.00950493
0.00935714
0.00921867
0.00908879
0.00896685
0.00885225
0.00874445
0.00864297
0.00854735
0.00845719
0.00837212
0.00829179
0.00821589
0.00814414
0.00807626
0.00801201
0.00795117
0.00789352
0.00783888
0.00778705
0.00773789
0.00769122
0.00764691
0.00760483
0.00756483
0.00752681
0.00749062
0.00745602
0.00983176
0.00966284
0.00950493
0.00935715
0.00921868
0.0090888
0.00896686
0.00885226
0.00874447
0.00864299
0.00854738
0.00845722
0.00837215
0.00829183
0.00821594
0.00814418
0.00807631
0.00801206
0.00795122
0.00789358
0.00783894
0.00778712
0.00773796
0.00769129
0.00764698
0.00760489
0.0075649
0.00752687
0.00749068
0.00745607
0.00983176
0.00966284
0.00950494
0.00935716
0.00921869
0.00908882
0.00896688
0.00885228
0.00874449
0.00864302
0.00854741
0.00845726
0.00837219
0.00829187
0.00821598
0.00814423
0.00807636
0.00801212
0.00795129
0.00789365
0.00783901
0.00778719
0.00773803
0.00769137
0.00764706
0.00760497
0.00756498
0.00752695
0.00749076
0.00745614
0.00983176
0.00966285
0.00950495
0.00935717
0.0092187
0.00908883
0.0089669
0.0088523
0.00874452
0.00864304
0.00854744
0.00845729
0.00837223
0.00829192
0.00821603
0.00814429
0.00807642
0.00801218
0.00795135
0.00789371
0.00783908
0.00778726
0.00773811
0.00769144
0.00764714
0.00760505
0.00756506
0.00752703
0.00749083
0.00745622
0.00983176
0.00966285
0.00950496
0.00935718
0.00921872
0.00908885
0.00896691
0.00885233
0.00874454
0.00864307
0.00854747
0.00845733
0.00837227
0.00829196
0.00821608
0.00814434
0.00807648
0.00801224
0.00795141
0.00789378
0.00783915
0.00778734
0.00773818
0.00769152
0.00764721
0.00760513
0.00756514
0.00752711
0.00749091
0.0074563
0.00983177
0.00966286
0.00950496
0.00935719
0.00921873
0.00908886
0.00896693
0.00885235
0.00874457
0.0086431
0.0085475
0.00845736
0.00837231
0.008292
0.00821613
0.00814439
0.00807653
0.0080123
0.00795148
0.00789385
0.00783922
0.00778741
0.00773825
0.00769159
0.00764729
0.0076052
0.00756521
0.00752719
0.00749099
0.00745638
0.00983177
0.00966286
0.00950497
0.0093572
0.00921874
0.00908888
0.00896695
0.00885237
0.00874459
0.00864313
0.00854753
0.0084574
0.00837235
0.00829205
0.00821617
0.00814444
0.00807658
0.00801236
0.00795153
0.00789391
0.00783928
0.00778747
0.00773832
0.00769166
0.00764736
0.00760527
0.00756528
0.00752726
0.00749106
0.00745644
0.00983177
0.00966287
0.00950498
0.00935721
0.00921876
0.0090889
0.00896697
0.00885239
0.00874462
0.00864316
0.00854757
0.00845743
0.00837239
0.00829209
0.00821622
0.00814449
0.00807663
0.00801241
0.00795159
0.00789397
0.00783934
0.00778753
0.00773838
0.00769173
0.00764742
0.00760534
0.00756535
0.00752732
0.00749112
0.00745651
0.00983177
0.00966288
0.00950499
0.00935722
0.00921877
0.00908892
0.00896699
0.00885242
0.00874465
0.00864319
0.0085476
0.00845747
0.00837243
0.00829213
0.00821626
0.00814453
0.00807668
0.00801246
0.00795164
0.00789402
0.0078394
0.00778759
0.00773844
0.00769178
0.00764748
0.0076054
0.0075654
0.00752738
0.00749118
0.00745656
0.00983178
0.00966288
0.009505
0.00935724
0.00921879
0.00908893
0.00896702
0.00885244
0.00874467
0.00864322
0.00854763
0.0084575
0.00837246
0.00829217
0.0082163
0.00814458
0.00807673
0.00801251
0.00795169
0.00789407
0.00783945
0.00778764
0.00773849
0.00769184
0.00764754
0.00760545
0.00756546
0.00752743
0.00749123
0.00745661
0.00983178
0.00966289
0.00950501
0.00935725
0.0092188
0.00908895
0.00896704
0.00885246
0.0087447
0.00864325
0.00854766
0.00845754
0.0083725
0.00829221
0.00821634
0.00814462
0.00807677
0.00801256
0.00795174
0.00789412
0.0078395
0.00778769
0.00773854
0.00769189
0.00764758
0.0076055
0.0075655
0.00752748
0.00749128
0.00745666
0.00983178
0.00966289
0.00950502
0.00935726
0.00921882
0.00908897
0.00896706
0.00885249
0.00874472
0.00864328
0.00854769
0.00845757
0.00837254
0.00829224
0.00821638
0.00814466
0.00807682
0.0080126
0.00795178
0.00789416
0.00783954
0.00778774
0.00773859
0.00769193
0.00764763
0.00760554
0.00756555
0.00752752
0.00749131
0.00745669
0.00983178
0.0096629
0.00950503
0.00935727
0.00921884
0.00908899
0.00896708
0.00885251
0.00874475
0.0086433
0.00854772
0.0084576
0.00837257
0.00829228
0.00821642
0.0081447
0.00807685
0.00801264
0.00795182
0.0078942
0.00783958
0.00778778
0.00773863
0.00769197
0.00764767
0.00760558
0.00756558
0.00752755
0.00749135
0.00745673
0.00983179
0.00966291
0.00950504
0.00935729
0.00921885
0.00908901
0.0089671
0.00885254
0.00874478
0.00864333
0.00854775
0.00845764
0.0083726
0.00829232
0.00821646
0.00814474
0.00807689
0.00801268
0.00795186
0.00789424
0.00783962
0.00778781
0.00773866
0.007692
0.0076477
0.00760561
0.00756561
0.00752758
0.00749138
0.00745675
0.00983179
0.00966291
0.00950505
0.0093573
0.00921887
0.00908903
0.00896712
0.00885256
0.0087448
0.00864336
0.00854778
0.00845767
0.00837264
0.00829235
0.00821649
0.00814477
0.00807693
0.00801271
0.0079519
0.00789427
0.00783965
0.00778785
0.00773869
0.00769204
0.00764773
0.00760564
0.00756564
0.00752761
0.0074914
0.00745677
0.00983179
0.00966292
0.00950506
0.00935732
0.00921889
0.00908905
0.00896715
0.00885259
0.00874483
0.00864339
0.00854781
0.0084577
0.00837267
0.00829238
0.00821652
0.0081448
0.00807696
0.00801274
0.00795193
0.00789431
0.00783968
0.00778788
0.00773872
0.00769206
0.00764776
0.00760566
0.00756566
0.00752763
0.00749142
0.00745679
0.0098318
0.00966293
0.00950507
0.00935733
0.0092189
0.00908907
0.00896717
0.00885261
0.00874486