/*--------------------------------*- C++ -*----------------------------------*\
| =========                 |                                                 |
| \\      /  F ield         | OpenFOAM: The Open Source CFD Toolbox           |
|  \\    /   O peration     | Version:  2.2.0                                 |
|   \\  /    A nd           | Web:      www.OpenFOAM.org                      |
|    \\/     M anipulation  |                                                 |
\*---------------------------------------------------------------------------*/
FoamFile
{
    version     2.0;
    format      ascii;
    class       volScalarField;
    location    "1000";
    object      k;
}
// * * * * * * * * * * * * * * * * * * * * * * * * * * * * * * * * * * * * * //

dimensions      [0 2 -2 0 0 0 0];

internalField   nonuniform List<scalar> 
7600
(
0.00103676
0.000994456
0.00105963
0.00179079
0.00260686
0.00339314
0.00417911
0.00497481
0.00578216
0.0065999
0.00742518
0.00825441
0.00908353
0.00990816
0.0107237
0.0115255
0.0123089
0.0130697
0.0138043
0.0145092
0.0151817
0.0157661
0.0162331
0.016596
0.01685
0.0169953
0.017025
0.0169262
0.016682
0.0162726
0.0156778
0.0148794
0.0138641
0.0126263
0.0111714
0.00951856
0.00770511
0.00580022
0.00387981
0.00132582
0.00167917
0.00314826
0.00367749
0.00434012
0.00528108
0.00608301
0.00677844
0.00741556
0.00802223
0.00861917
0.00922138
0.00984042
0.0104856
0.0111651
0.0118864
0.0126577
0.0134887
0.014392
0.0153847
0.0164925
0.0177531
0.019088
0.0203976
0.0216467
0.022826
0.0239156
0.0248831
0.0256835
0.0262594
0.0265427
0.0264571
0.0259228
0.0248633
0.0232146
0.0209373
0.0180341
0.0145658
0.010668
0.00658165
0.00285122
0.0027653
0.00509049
0.0058621
0.00676697
0.00785328
0.00881362
0.00964474
0.0103912
0.0110892
0.0117681
0.0124506
0.013154
0.0138923
0.014677
0.0155183
0.0164262
0.0174115
0.0184871
0.0196697
0.0209839
0.0224674
0.0240216
0.0255219
0.0269462
0.0282978
0.0295568
0.0306853
0.0316252
0.0322983
0.0326094
0.0324531
0.0317236
0.0303283
0.0282041
0.0253367
0.0217812
0.0176791
0.0132681
0.00876829
0.00444153
0.00410506
0.0073628
0.00838221
0.00934837
0.0104853
0.0115611
0.0125236
0.0133884
0.0141825
0.0149354
0.0156741
0.0164222
0.0171999
0.0180246
0.0189112
0.0198727
0.0209205
0.022066
0.023322
0.0247071
0.0262514
0.0278468
0.029365
0.0307992
0.03216
0.0334305
0.0345702
0.0355133
0.0361689
0.036427
0.0361686
0.0352806
0.0336725
0.0312943
0.0281535
0.0243272
0.0199661
0.0152955
0.010463
0.00583177
0.00523339
0.00968616
0.0110767
0.012091
0.013222
0.0143419
0.0153731
0.0163016
0.0171407
0.0179164
0.0186593
0.0193999
0.0201663
0.0209827
0.0218688
0.0228392
0.0239043
0.0250707
0.0263435
0.0277304
0.0292485
0.0307847
0.0322153
0.0335605
0.0348403
0.0360455
0.0371401
0.0380569
0.0386993
0.038948
0.0386745
0.037758
0.0361045
0.0336637
0.0304409
0.0265033
0.021978
0.0170661
0.0119151
0.00717135
0.00633927
0.0118184
0.0137009
0.014837
0.0159576
0.0170665
0.0180988
0.0190259
0.0198515
0.0205989
0.0213016
0.0219963
0.0227177
0.0234954
0.0243518
0.0253009
0.0263489
0.0274946
0.028732
0.0300539
0.0314616
0.0328448
0.0340948
0.0352761
0.0364196
0.0375305
0.0385807
0.0395047
0.0401996
0.040534
0.0403636
0.0395515
0.0379892
0.0356128
0.032413
0.0284373
0.0237863
0.0186467
0.0132097
0.00849318
0.00738348
0.0136713
0.0160798
0.0174163
0.018557
0.0196319
0.0206176
0.0214895
0.0222503
0.0229241
0.0235476
0.0241624
0.024808
0.0255171
0.0263123
0.0272045
0.0281931
0.0292669
0.0304067
0.0315889
0.032799
0.0339425
0.0349524
0.0359346
0.0369369
0.0379796
0.0390418
0.0400556
0.0409063
0.0414422
0.0414943
0.0409009
0.0395312
0.0373027
0.0341888
0.0302191
0.025474
0.0201305
0.0144325
0.00981425
0.00834023
0.0152072
0.0181086
0.0196941
0.0208942
0.0219355
0.0228484
0.0236272
0.0242823
0.0248429
0.0253504
0.0258508
0.0263867
0.0269914
0.0276856
0.028475
0.029351
0.0302913
0.0312636
0.0322298
0.033166
0.0340097
0.0347615
0.0355583
0.0364643
0.0375105
0.0386779
0.0398898
0.0410121
0.0418655
0.042249
0.0419695
0.04087
0.0388476
0.0358607
0.0319265
0.0271124
0.0215867
0.0156375
0.0111417
0.00919429
0.0164108
0.0197317
0.0215791
0.0228703
0.02389
0.0247207
0.0253831
0.0259022
0.026316
0.0266727
0.0270225
0.0274098
0.0278673
0.0284119
0.0290435
0.0297449
0.0304842
0.031219
0.0319029
0.0325127
0.0330364
0.0335571
0.0342273
0.03512
0.0362697
0.0376523
0.0391772
0.0406859
0.0419659
0.0427784
0.0428942
0.0421268
0.040353
0.0375197
0.0336379
0.0287693
0.0230724
0.0168642
0.0124791
0.00993633
0.0172856
0.0209312
0.0230226
0.0244214
0.0254342
0.0261833
0.0267177
0.0270799
0.0273199
0.0274939
0.0276565
0.0278535
0.0281161
0.0284571
0.0288707
0.0293329
0.0298056
0.0302418
0.0305958
0.0308596
0.0310858
0.0314427
0.0320762
0.033057
0.0344157
0.0361201
0.0380641
0.0400633
0.0418686
0.0431986
0.0437825
0.0434007
0.0419094
0.0392466
0.0354234
0.0305021
0.0246317
0.0181417
0.0138285
0.0105619
0.0178479
0.021717
0.0240124
0.0255193
0.026537
0.0272111
0.0276149
0.0278086
0.0278551
0.0278193
0.0277607
0.0277267
0.0277468
0.0278306
0.0279681
0.0281319
0.0282826
0.0283765
0.0283797
0.0283138
0.0283042
0.0285901
0.0292857
0.0304499
0.0321063
0.0342168
0.0366642
0.0392406
0.0416585
0.0435879
0.0447096
0.0447651
0.0435876
0.041108
0.0373417
0.0323587
0.0263
0.0194936
0.0151921
0.0110703
0.0181218
0.0221176
0.0245658
0.0261687
0.0271991
0.0278089
0.0280875
0.0281104
0.0279527
0.0276878
0.0273808
0.0270809
0.0268174
0.0265981
0.0264119
0.0262323
0.0260251
0.0257586
0.0254215
0.0250776
0.0249234
0.0252349
0.0260748
0.0274866
0.0294909
0.0320533
0.0350558
0.0382729
0.0413778
0.0439848
0.0457156
0.0462641
0.0454355
0.0431529
0.0394395
0.0343784
0.0281072
0.0209405
0.0165735
0.0114638
0.0181369
0.0221741
0.0247217
0.0264015
0.0274498
0.0280096
0.0281769
0.0280374
0.0276758
0.0271739
0.0266024
0.0260136
0.0254383
0.0248856
0.0243469
0.0238022
0.0232292
0.0226164
0.0219843
0.0214445
0.0212509
0.0216647
0.0226911
0.0243635
0.0267111
0.0297196
0.0332859
0.0371779
0.0410295
0.0443894
0.0468063
0.0479131
0.047478
0.0454138
0.0417523
0.0365945
0.0300805
0.0225029
0.0179781
0.0117464
0.0179252
0.0219344
0.024533
0.0262693
0.0273403
0.0278691
0.0279482
0.0276667
0.0271156
0.0263832
0.0255461
0.0246619
0.0237654
0.0228705
0.0219762
0.0210743
0.0201611
0.0192519
0.0184027
0.0177691
0.0176353
0.0181889
0.0193912
0.021278
0.0239031
0.0272927
0.031381
0.0359448
0.0405831
0.0447683
0.0479565
0.0497007
0.0497196
0.0479084
0.0443069
0.0390374
0.032248
0.0242041
0.0194153
0.011923
0.0175194
0.0214488
0.0240599
0.0258351
0.0269352
0.0274569
0.0274802
0.0270903
0.0263792
0.0254394
0.0243539
0.023187
0.0219812
0.0207596
0.0195337
0.0183127
0.0171164
0.0159897
0.0150204
0.0143892
0.0143962
0.0150826
0.0164048
0.0184128
0.0211983
0.0248477
0.0293592
0.0345461
0.0399841
0.0450604
0.0491148
0.0515944
0.0521486
0.0506447
0.0471267
0.0417389
0.034643
0.0260734
0.0208999
0.0119976
0.0169512
0.0207654
0.0233619
0.025164
0.026302
0.0268446
0.0268528
0.0264001
0.0255738
0.0244674
0.0231689
0.0217515
0.0202686
0.0187574
0.0172465
0.0157673
0.014366
0.0131155
0.0121262
0.01158
0.0117434
0.0125224
0.0138902
0.0159118
0.0187175
0.0224646
0.0272458
0.0329514
0.0391642
0.0451852
0.0502103
0.0535459
0.0547442
0.053628
0.0502379
0.044739
0.0373099
0.0281515
0.0224549
0.0119719
0.0162487
0.0199265
0.0224926
0.0243153
0.025502
0.0260956
0.0261342
0.0256737
0.0247904
0.0235736
0.0221147
0.0204956
0.0187838
0.0170344
0.0152973
0.013629
0.012102
0.0108117
0.00987707
0.00945982
0.00973211
0.0105542
0.0119066
0.0138573
0.0165588
0.0202323
0.025087
0.0311459
0.038056
0.0450526
0.0511605
0.0554995
0.0574848
0.0568696
0.0536795
0.0480954
0.0403133
0.0304973
0.0241157
0.0118435
0.0154355
0.0189658
0.0214946
0.0233365
0.0245831
0.0252564
0.0253716
0.0249629
0.0240894
0.0228311
0.0212781
0.0195197
0.0176377
0.0157073
0.0138026
0.0120053
0.0104111
0.00912797
0.00826757
0.00795892
0.00829286
0.0091219
0.0104272
0.0122661
0.0147861
0.0182435
0.0229613
0.0291487
0.0366096
0.0445729
0.0518776
0.0573984
0.0603565
0.0603984
0.0575157
0.0518964
0.0437509
0.0331997
0.0259356
0.0116027
0.0145169
0.0179056
0.0203975
0.0222611
0.0235779
0.0243556
0.0245898
0.0242915
0.0234989
0.022276
0.0207059
0.0188808
0.0168939
0.0148411
0.01282
0.0109356
0.00930165
0.0080302
0.00721671
0.00696583
0.00732528
0.00814136
0.00939108
0.0111139
0.0134297
0.0165864
0.0209806
0.0270296
0.0348089
0.043665
0.0522701
0.0591861
0.0633583
0.06427
0.0618499
0.0562786
0.0477718
0.0363935
0.0279948
0.011251
0.0135191
0.0167621
0.01922
0.0211077
0.0225007
0.0233996
0.0237863
0.0236517
0.0230111
0.0219083
0.0204125
0.0186099
0.0165885
0.0144741
0.0123834
0.0104394
0.00876975
0.00748787
0.0066727
0.00642397
0.00678459
0.00757329
0.00876326
0.0103793
0.0125042
0.015339
0.0192841
0.0249207
0.0326877
0.0422578
0.0522304
0.0607914
0.0664938
0.0685692
0.0668377
0.0614487
0.0526046
0.0402879
0.0304142
0.0108126
0.0125904
0.01567
0.0180934
0.0200019
0.0214624
0.0224735
0.0230101
0.0230503
0.0225912
0.0216576
0.0203027
0.0186034
0.016652
0.01457
0.0124886
0.0105433
0.0088681
0.00757569
0.00673834
0.00644938
0.0067535
0.00747949
0.00859101
0.0101016
0.0120591
0.0145987
0.0180529
0.0230499
0.0303801
0.0403241
0.0516355
0.0621117
0.0697588
0.073411
0.0727057
0.0677194
0.0586056
0.045212
0.033382
0.0103264
0.0117648
0.0147114
0.017108
0.0190355
0.0205523
0.021657
0.0223226
0.0225206
0.0222368
0.0214816
0.0202944
0.0187418
0.0169137
0.0149278
0.0129193
0.0110293
0.00939349
0.00812409
0.00729621
0.00698899
0.00722357
0.00787211
0.00889856
0.0103094
0.0121289
0.0144377
0.0174871
0.021861
0.0285128
0.0382253
0.0504395
0.0628954
0.0728129
0.078441
0.0791388
0.0748524
0.0656322
0.0510962
0.0368552
0.00980084
0.0110231
0.0138606
0.0162393
0.0181886
0.0197565
0.0209423
0.0217197
0.0220576
0.0219355
0.021354
0.0203414
0.0189552
0.0172801
0.0154292
0.0135359
0.0117409
0.0101781
0.00895835
0.00816085
0.00785548
0.00804474
0.00863168
0.00958678
0.0109124
0.0126168
0.0147387
0.0174555
0.0212783
0.0272261
0.0365048
0.049177
0.0631366
0.0752696
0.0831657
0.0856046
0.0823459
0.0732803
0.0578104
0.0406827
0.00924585
0.0103502
0.013098
0.0154677
0.0174442
0.0190635
0.0203248
0.0212034
0.0216681
0.0216953
0.0212793
0.0204406
0.0192283
0.0177214
0.0160272
0.0142741
0.0125989
0.0111316
0.00998096
0.00923106
0.00895462
0.00912082
0.0096635
0.0105598
0.0118095
0.0134094
0.015367
0.0177969
0.0211287
0.0263777
0.0350592
0.0478843
0.0630943
0.0772654
0.0874771
0.0920436
0.0902048
0.0815965
0.0652506
0.0449272
0.00867004
0.00973496
0.0124092
0.0147779
0.0167882
0.0184624
0.0197988
0.0207738
0.0213575
0.021525
0.0212671
0.0205984
0.0195616
0.0182292
0.0167021
0.0151025
0.0135612
0.0122029
0.0111343
0.010444
0.0102121
0.0103713
0.0108836
0.0117303
0.0129089
0.0144078
0.0162121
0.018387
0.021286
0.0258813
0.0338817
0.0465866
0.062751
0.078839
0.0914391
0.0983882
0.0984346
0.0906844
0.0736571
0.0496923
0.00808106
0.00916828
0.0117822
0.0141564
0.0162069
0.0179415
0.0193556
0.0204269
0.0211265
0.0214295
0.0213245
0.020822
0.0199592
0.0188025
0.0174463
0.0160056
0.0146044
0.0133618
0.0123816
0.0117562
0.0115642
0.0117281
0.0122179
0.0130186
0.014126
0.0155225
0.0171785
0.0191249
0.0216538
0.0256808
0.0330099
0.0453975
0.0621901
0.0799932
0.0950488
0.104658
0.107031
0.10063
0.0831873
0.0550733
0.00748569
0.00864276
0.0112073
0.0135909
0.0156869
0.0174873
0.0189839
0.0201544
0.0209706
0.0214078
0.0214533
0.0211142
0.0204231
0.0194408
0.0182549
0.0169731
0.0157123
0.0145856
0.0136935
0.0131297
0.0129706
0.0131358
0.0135994
0.01435
0.0153819
0.0166735
0.0181879
0.0199383
0.0221791
0.025777
0.032551
0.0445275
0.0616205
0.0808482
0.0983439
0.1109
0.11604
0.111506
0.0940075
0.0611792
0.00688992
0.00815199
0.0106754
0.0130699
0.0152141
0.017085
0.0186693
0.0199436
0.0208799
0.0214531
0.0216491
0.021472
0.0209502
0.020139
0.0191195
0.0179922
0.0168666
0.0158494
0.0150367
0.0145212
0.0143776
0.0145331
0.0149615
0.0156559
0.0166099
0.0178014
0.0191954
0.0208076
0.0228883
0.0262792
0.0327421
0.0443403
0.0614361
0.0817098
0.101508
0.117224
0.125595
0.123418
0.106258
0.0681487
0.00629906
0.00769014
0.0101785
0.0125821
0.0147746
0.0167188
0.0183957
0.0197793
0.0208406
0.0215532
0.0219011
0.0218853
0.0215297
0.0208844
0.0200241
0.0190421
0.0180403
0.0171188
0.0163684
0.0158795
0.0157281
0.0158635
0.0162499
0.0168889
0.0177769
0.0188969
0.0202299
0.0218225
0.0239642
0.0274971
0.0340315
0.0454093
0.0622677
0.0831363
0.104942
0.123888
0.135893
0.136604
0.120076
0.0761316
0.00571789
0.00725159
0.00970822
0.0121168
0.0143548
0.0163733
0.0181466
0.0196448
0.0208362
0.021692
0.022193
0.0223364
0.0221418
0.0216538
0.0209408
0.0200891
0.0191934
0.0183472
0.0176373
0.0171524
0.0169767
0.0170937
0.0174449
0.018055
0.0189277
0.0200635
0.0214838
0.0233057
0.025899
0.0300861
0.0371718
0.0485507
0.0649884
0.0859546
0.109299
0.131348
0.147257
0.151343
0.135782
0.0852155
0.00515092
0.00683065
0.00925641
0.0116638
0.0139429
0.0160355
0.017908
0.0195249
0.0208501
0.0218507
0.0225032
0.0228003
0.0227566
0.0224115
0.0218278
0.0210857
0.0202742
0.0194829
0.0187974
0.0183102
0.0181217
0.0182366
0.018615
0.0192856
0.0202832
0.021656
0.0235065
0.0260584
0.0297389
0.035204
0.043261
0.0547851
0.0706267
0.0911763
0.115442
0.140248
0.160157
0.168015
0.153682
0.0955479
0.00460259
0.00642142
0.00881474
0.0112149
0.0135311
0.0156975
0.0176712
0.0194085
0.0208672
0.0220088
0.0228046
0.0232421
0.0233313
0.0231079
0.0226309
0.0219773
0.0212339
0.0204911
0.01984
0.0193872
0.0192583
0.0194776
0.0200448
0.0209943
0.0224659
0.0245995
0.0276008
0.0317368
0.0372846
0.0444808
0.0535929
0.0651513
0.0801492
0.0997805
0.124285
0.151337
0.175177
0.187109
0.174159
0.107298
0.00407754
0.00601779
0.00837626
0.0107668
0.0131201
0.0153616
0.0174359
0.0192895
0.0208729
0.0221414
0.023061
0.023615
0.0238117
0.0236865
0.0232991
0.0227279
0.0220631
0.0214026
0.0208537
0.0205583
0.0206877
0.0212998
0.0224589
0.024256
0.0270393
0.0310121
0.0363128
0.0429353
0.0507138
0.0594474
0.0691451
0.0802995
0.0941072
0.112383
0.13651
0.16527
0.19291
0.20918
0.197677
0.120672
0.00358113
0.00561457
0.00793836
0.0103261
0.0127234
0.0150416
0.0172087
0.0191615
0.0208452
0.0222109
0.0232221
0.0238629
0.0241461
0.0241136
0.0238311
0.0233839
0.0228724
0.0224143
0.0221596
0.0223438
0.0232441
0.0249821
0.0277295
0.0317361
0.03735
0.0444998
0.0528203
0.0618392
0.0711128
0.0803917
0.0897872
0.0999385
0.112224
0.12888
0.152247
0.182346
0.213773
0.234766
0.224766
0.13593
0.00312101
0.00521394
0.00751341
0.00992069
0.0123751
0.0147625
0.0169946
0.0190058
0.0207447
0.0221662
0.0232404
0.0239616
0.0243567
0.0244803
0.0244098
0.0242453
0.0241155
0.0241964
0.0247595
0.0262928
0.0292744
0.0337852
0.0399604
0.0479568
0.0574764
0.0676703
0.0779264
0.0877949
0.0970191
0.105591
0.113833
0.122529
0.133164
0.148222
0.170808
0.20223
0.237771
0.264244
0.256007
0.153428
0.00270976
0.00483442
0.00714246
0.00960314
0.0121114
0.014524
0.0167548
0.0187622
0.0205197
0.0220019
0.0231982
0.024122
0.0248315
0.0253972
0.0259216
0.0265504
0.0274993
0.0291053
0.0319164
0.0368306
0.0441921
0.0533465
0.0639955
0.0758175
0.0873948
0.098273
0.1082
0.117063
0.124881
0.131863
0.138476
0.145583
0.154708
0.168477
0.190604
0.22372
0.264207
0.297607
0.292021
0.173686
0.00237942
0.00455232
0.00693215
0.00944854
0.0119594
0.0143328
0.016548
0.0186364
0.0206262
0.0225267
0.0243622
0.0261557
0.0280886
0.0302106
0.032654
0.0356363
0.0394876
0.0446833
0.0518587
0.0617625
0.0737014
0.0862305
0.0990303
0.11086
0.121314
0.130449
0.138328
0.145043
0.150764
0.155804
0.160701
0.166345
0.174265
0.187164
0.209263
0.244591
0.291258
0.333993
0.333398
0.197639
0.00230687
0.00441567
0.00701622
0.00956965
0.012249
0.0150365
0.0181758
0.0219161
0.0264064
0.0314561
0.0368615
0.0422515
0.0485061
0.0547041
0.0609402
0.0674018
0.0743996
0.0823326
0.0916358
0.10269
0.11453
0.126036
0.136379
0.145091
0.152457
0.158643
0.163775
0.167989
0.171498
0.174649
0.177999
0.182433
0.189449
0.201757
0.223935
0.261407
0.314862
0.369915
0.380313
0.227903
0.00274922
0.00516042
0.00972699
0.0143922
0.021279
0.0308152
0.0451762
0.0625162
0.0799841
0.0941958
0.10553
0.11409
0.120347
0.124718
0.127851
0.130472
0.133274
0.13684
0.141614
0.147869
0.155053
0.161847
0.167446
0.172119
0.175983
0.179108
0.181567
0.183475
0.185042
0.186611
0.188725
0.192229
0.198536
0.210217
0.231852
0.269872
0.328614
0.399401
0.439155
0.276436
0.0074296
0.0182113
0.0368673
0.0642615
0.100251
0.145178
0.197725
0.234004
0.247275
0.247454
0.240933
0.231412
0.220959
0.210809
0.201721
0.194117
0.188292
0.184406
0.182521
0.182606
0.184195
0.185732
0.187143
0.188353
0.18929
0.189917
0.190249
0.190376
0.190493
0.190927
0.192185
0.195041
0.200757
0.211598
0.231717
0.267932
0.327917
0.416997
0.516746
0.353027
0.096734
0.0934082
0.0905114
0.0879581
0.0856896
0.0836618
0.0818402
0.0801969
0.0787092
0.0773579
0.0761267
0.0750017
0.0739711
0.0730245
0.0721529
0.0713485
0.0706045
0.0699146
0.0692737
0.0686769
0.06812
0.0675992
0.0671111
0.0666526
0.0662208
0.0658129
0.0654263
0.0650582
0.0647043
0.0643375
0.0975191
0.0941044
0.0906311
0.0872966
0.0841818
0.0813138
0.0786936
0.0763095
0.0741441
0.0721784
0.0703933
0.0687706
0.0672937
0.0659473
0.064718
0.0635935
0.0625632
0.0616175
0.0607481
0.0599475
0.0592092
0.0585275
0.0578975
0.0573149
0.0567761
0.0562786
0.0558206
0.0554012
0.0550208
0.0546696
0.0985248
0.0965073
0.0943316
0.0921198
0.0899435
0.0878443
0.085845
0.0839566
0.0821829
0.0805229
0.078973
0.0775279
0.0761816
0.0749274
0.0737592
0.0726705
0.0716554
0.0707084
0.0698242
0.068998
0.0682254
0.0675023
0.0668251
0.0661896
0.0655924
0.0650311
0.0645032
0.0640062
0.0635371
0.0630874
0.0988774
0.0974476
0.0959078
0.0943197
0.0927261
0.0911562
0.0896292
0.0881572
0.0867476
0.085404
0.0841278
0.0829182
0.081774
0.0806927
0.0796719
0.0787085
0.0777995
0.0769419
0.0761327
0.0753689
0.0746479
0.0739668
0.0733232
0.0727147
0.072139
0.0715939
0.0710775
0.0705878
0.0701225
0.0696782
0.0990237
0.0978671
0.0966503
0.0954019
0.0941456
0.0928994
0.0916767
0.0904865
0.0893351
0.0882265
0.087163
0.0861454
0.0851738
0.0842477
0.0833659
0.0825271
0.0817297
0.080972
0.0802521
0.0795683
0.0789187
0.0783017
0.0777154
0.0771582
0.0766285
0.0761246
0.0756452
0.0751884
0.0747527
0.0743351
0.0990872
0.0980667
0.0970258
0.0959737
0.0949215
0.0938791
0.0928545
0.0918539
0.0908817
0.0899411
0.0890339
0.0881613
0.0873238
0.0865212
0.0857531
0.0850188
0.0843174
0.0836479
0.0830089
0.0823994
0.0818181
0.0812638
0.0807352
0.0802311
0.0797503
0.0792917
0.078854
0.0784361
0.0780366
0.0776531
0.0991145
0.0981616
0.0972179
0.0962819
0.0953565
0.0944455
0.0935528
0.0926818
0.0918351
0.0910147
0.0902219
0.0894575
0.0887218
0.0880148
0.0873362
0.0866856
0.0860623
0.0854656
0.0848946
0.0843485
0.0838263
0.0833271
0.0828499
0.0823938
0.081958
0.0815413
0.081143
0.0807621
0.0803974
0.0800467
0.0991258
0.0982054
0.0973137
0.0964451
0.0955977
0.0947712
0.0939665
0.0931843
0.0924258
0.0916917
0.0909825
0.0902984
0.0896396
0.0890058
0.0883968
0.087812
0.087251
0.086713
0.0861975
0.0857037
0.0852307
0.0847779
0.0843445
0.0839298
0.0835328
0.0831529
0.0827894
0.0824413
0.0821078
0.0817869
0.0991303
0.0982248
0.0973595
0.0965282
0.0957269
0.0949532
0.0942056
0.0934832
0.0927857
0.0921127
0.0914638
0.0908389
0.0902375
0.0896593
0.0891036
0.08857
0.0880579
0.0875667
0.0870956
0.0866441
0.0862114
0.0857968
0.0853997
0.0850195
0.0846553
0.0843066
0.0839727
0.0836529
0.0833463
0.0830511
0.099132
0.098233
0.0973803
0.0965685
0.095793
0.0950505
0.0943384
0.0936547
0.0929978
0.0923667
0.0917603
0.0911777
0.0906183
0.0900812
0.0895657
0.0890711
0.0885967
0.0881419
0.0877058
0.0872879
0.0868874
0.0865037
0.0861362
0.0857842
0.0854471
0.0851242
0.084815
0.0845189
0.0842349
0.0839614
0.0991326
0.0982363
0.0973893
0.096587
0.0958251
0.0951
0.0944086
0.0937484
0.0931173
0.0925136
0.0919357
0.0913824
0.0908524
0.0903448
0.0898586
0.0893928
0.0889466
0.0885193
0.0881101
0.0877181
0.0873428
0.0869834
0.0866393
0.0863099
0.0859945
0.0856925
0.0854034
0.0851266
0.0848612
0.0846056
0.0991328
0.0982376
0.0973931
0.0965951
0.0958398
0.0951237
0.0944437
0.093797
0.0931813
0.0925945
0.0920347
0.0915005
0.0909902
0.0905027
0.0900368
0.0895914
0.0891655
0.0887583
0.0883687
0.0879962
0.0876398
0.0872989
0.0869728
0.0866608
0.0863623
0.0860767
0.0858035
0.0855419
0.0852913
0.08505
0.0991329
0.098238
0.0973945
0.0965985
0.0958462
0.0951345
0.0944603
0.0938209
0.0932137
0.0926367
0.0920877
0.0915651
0.0910673
0.0905928
0.0901402
0.0897085
0.0892964
0.0889031
0.0885274
0.0881686
0.0878259
0.0874984
0.0871855
0.0868864
0.0866006
0.0863273
0.0860661
0.0858162
0.085577
0.0853467
0.0991329
0.0982382
0.097395
0.0965998
0.0958489
0.0951392
0.0944678
0.0938319
0.0932292
0.0926574
0.0921145
0.0915987
0.0911082
0.0906415
0.0901972
0.0897741
0.0893709
0.0889867
0.0886202
0.0882707
0.0879373
0.087619
0.0873153
0.0870253
0.0867485
0.0864841
0.0862315
0.0859901
0.0857592
0.085537
0.0991329
0.0982382
0.0973952
0.0966002
0.0958499
0.0951411
0.0944709
0.0938368
0.0932362
0.0926671
0.0921274
0.0916151
0.0911287
0.0906664
0.090227
0.089809
0.0894112
0.0890324
0.0886718
0.0883281
0.0880007
0.0876885
0.0873908
0.0871069
0.086836
0.0865776
0.0863309
0.0860954
0.0858702
0.0856538
0.0991329
0.0982382
0.0973953
0.0966004
0.0958503
0.0951418
0.0944721
0.0938388
0.0932392
0.0926714
0.0921332
0.0916227
0.0911384
0.0906785
0.0902417
0.0898265
0.0894317
0.0890562
0.0886989
0.0883588
0.0880349
0.0877264
0.0874325
0.0871524
0.0868853
0.0866307
0.0863878
0.0861561
0.0859346
0.0857219
0.0991329
0.0982382
0.0973953
0.0966005
0.0958504
0.095142
0.0944726
0.0938396
0.0932405
0.0926732
0.0921357
0.0916261
0.0911428
0.0906841
0.0902486
0.0898349
0.0894418
0.089068
0.0887125
0.0883744
0.0880525
0.0877461
0.0874544
0.0871765
0.0869117
0.0866593
0.0864188
0.0861893
0.0859702
0.0857598
0.0991329
0.0982382
0.0973953
0.0966005
0.0958504
0.0951422
0.0944728
0.0938399
0.093241
0.0926739
0.0921367
0.0916276
0.0911447
0.0906866
0.0902517
0.0898388
0.0894464
0.0890736
0.0887191
0.0883819
0.0880612
0.0877559
0.0874653
0.0871886
0.0869251
0.086674
0.0864348
0.0862066
0.0859888
0.0857797
0.0991329
0.0982382
0.0973953
0.0966005
0.0958505
0.0951422
0.0944729
0.09384
0.0932412
0.0926742
0.0921372
0.0916282
0.0911456
0.0906877
0.0902532
0.0898405
0.0894486
0.0890762
0.0887221
0.0883855
0.0880653
0.0877606
0.0874706
0.0871946
0.0869317
0.0866813
0.0864427
0.0862152
0.0859981
0.0857897
0.0991329
0.0982382
0.0973953
0.0966005
0.0958505
0.0951423
0.094473
0.0938401
0.0932413
0.0926744
0.0921374
0.0916285
0.091146
0.0906883
0.0902539
0.0898414
0.0894496
0.0890774
0.0887236
0.0883872
0.0880673
0.0877629
0.0874732
0.0871974
0.0869348
0.0866848
0.0864465
0.0862194
0.0860026
0.0857945
0.0991329
0.0982382
0.0973954
0.0966006
0.0958506
0.0951423
0.094473
0.0938402
0.0932414
0.0926746
0.0921376
0.0916288
0.0911463
0.0906886
0.0902543
0.0898419
0.0894502
0.0890781
0.0887244
0.0883881
0.0880683
0.087764
0.0874745
0.0871989
0.0869364
0.0866865
0.0864484
0.0862214
0.0860048
0.0857969
0.0991329
0.0982383
0.0973954
0.0966006
0.0958506
0.0951424
0.0944731
0.0938403
0.0932415
0.0926747
0.0921378
0.091629
0.0911465
0.0906889
0.0902546
0.0898423
0.0894506
0.0890786
0.0887249
0.0883887
0.088069
0.0877647
0.0874753
0.0871997
0.0869373
0.0866875
0.0864494
0.0862225
0.0860059
0.0857981
0.0991329
0.0982383
0.0973954
0.0966007
0.0958507
0.0951424
0.0944732
0.0938404
0.0932416
0.0926748
0.0921379
0.0916291
0.0911467
0.0906891
0.0902549
0.0898426
0.089451
0.089079
0.0887254
0.0883892
0.0880694
0.0877653
0.0874758
0.0872003
0.0869379
0.0866881
0.0864501
0.0862232
0.0860066
0.0857988
0.0991329
0.0982383
0.0973955
0.0966007
0.0958507
0.0951425
0.0944733
0.0938405
0.0932418
0.092675
0.0921381
0.0916293
0.091147
0.0906894
0.0902551
0.0898429
0.0894513
0.0890793
0.0887257
0.0883896
0.0880699
0.0877657
0.0874763
0.0872008
0.0869384
0.0866886
0.0864506
0.0862237
0.0860071
0.0857993
0.0991329
0.0982383
0.0973955
0.0966008
0.0958508
0.0951426
0.0944734
0.0938406
0.0932419
0.0926751
0.0921383
0.0916295
0.0911472
0.0906896
0.0902554
0.0898432
0.0894516
0.0890797
0.0887261
0.08839
0.0880703
0.0877661
0.0874767
0.0872012
0.0869389
0.086689
0.086451
0.0862241
0.0860075
0.0857997
0.0991329
0.0982384
0.0973955
0.0966008
0.0958509
0.0951427
0.0944735
0.0938407
0.093242
0.0926753
0.0921385
0.0916297
0.0911474
0.0906899
0.0902557
0.0898435
0.089452
0.08908
0.0887265
0.0883903
0.0880707
0.0877665
0.0874771
0.0872016
0.0869393
0.0866894
0.0864514
0.0862245
0.0860079
0.0858001
0.0991329
0.0982384
0.0973956
0.0966009
0.0958509
0.0951428
0.0944736
0.0938408
0.0932422
0.0926755
0.0921387
0.0916299
0.0911476
0.0906901
0.0902559
0.0898437
0.0894523
0.0890803
0.0887268
0.0883907
0.088071
0.0877669
0.0874775
0.087202
0.0869397
0.0866898
0.0864518
0.0862249
0.0860083
0.0858004
0.0991329
0.0982384
0.0973956
0.0966009
0.095851
0.0951429
0.0944737
0.093841
0.0932423
0.0926756
0.0921388
0.0916301
0.0911478
0.0906903
0.0902562
0.089844
0.0894526
0.0890806
0.0887271
0.088391
0.0880714
0.0877673
0.0874778
0.0872023
0.08694
0.0866902
0.0864521
0.0862252
0.0860086
0.0858007
0.0991329
0.0982384
0.0973957
0.096601
0.0958511
0.095143
0.0944738
0.0938411
0.0932425
0.0926758
0.092139
0.0916303
0.091148
0.0906906
0.0902564
0.0898443
0.0894528
0.0890809
0.0887274
0.0883913
0.0880717
0.0877676
0.0874782
0.0872027
0.0869404
0.0866905
0.0864525
0.0862256
0.0860089
0.085801
0.0991329
0.0982385
0.0973957
0.096601
0.0958512
0.095143
0.0944739
0.0938412
0.0932426
0.0926759
0.0921392
0.0916305
0.0911483
0.0906908
0.0902567
0.0898445
0.0894531
0.0890812
0.0887277
0.0883916
0.088072
0.0877679
0.0874785
0.087203
0.0869407
0.0866908
0.0864528
0.0862258
0.0860092
0.0858013
0.099133
0.0982385
0.0973957
0.0966011
0.0958512
0.0951431
0.094474
0.0938413
0.0932427
0.0926761
0.0921393
0.0916307
0.0911485
0.090691
0.0902569
0.0898448
0.0894533
0.0890814
0.088728
0.0883919
0.0880722
0.0877681
0.0874787
0.0872032
0.0869409
0.0866911
0.086453
0.0862261
0.0860094
0.0858015
0.099133
0.0982385
0.0973958
0.0966012
0.0958513
0.0951432
0.0944741
0.0938415
0.0932429
0.0926762
0.0921395
0.0916309
0.0911486
0.0906912
0.0902571
0.089845
0.0894536
0.0890817
0.0887282
0.0883921
0.0880725
0.0877684
0.087479
0.0872035
0.0869412
0.0866913
0.0864532
0.0862263
0.0860096
0.0858017
0.099133
0.0982385
0.0973958
0.0966012
0.0958514
0.0951433
0.0944742
0.0938416
0.093243
0.0926764
0.0921397
0.0916311
0.0911488
0.0906914
0.0902573
0.0898452
0.0894538
0.0890819
0.0887284
0.0883924
0.0880727
0.0877686
0.0874792
0.0872037
0.0869414
0.0866915
0.0864534
0.0862265
0.0860098
0.0858019
0.099133
0.0982386
0.0973959
0.0966013
0.0958515
0.0951434
0.0944743
0.0938417
0.0932431
0.0926765
0.0921398
0.0916312
0.091149
0.0906916
0.0902575
0.0898454
0.089454
0.0890821
0.0887286
0.0883926
0.0880729
0.0877688
0.0874794
0.0872039
0.0869415
0.0866917
0.0864536
0.0862266
0.0860099
0.085802
0.099133
0.0982386
0.0973959
0.0966013
0.0958516
0.0951435
0.0944744
0.0938418
0.0932433
0.0926767
0.09214
0.0916314
0.0911492
0.0906918
0.0902577
0.0898456
0.0894542
0.0890823
0.0887288
0.0883927
0.0880731
0.087769
0.0874796
0.087204
0.0869417
0.0866918
0.0864537
0.0862267
0.08601
0.0858021
0.099133
0.0982386
0.097396
0.0966014
0.0958516
0.0951436
0.0944746
0.0938419
0.0932434
0.0926768
0.0921401
0.0916315
0.0911493
0.0906919
0.0902579
0.0898457
0.0894543
0.0890825
0.088729
0.0883929
0.0880733
0.0877691
0.0874797
0.0872042
0.0869418
0.0866919
0.0864538
0.0862268
0.0860101
0.0858021
0.099133
0.0982387
0.097396
0.0966015
0.0958517
0.0951437
0.0944747
0.0938421
0.0932436
0.092677
0.0921403
0.0916317
0.0911495
0.0906921
0.090258
0.0898459
0.0894545
0.0890826
0.0887291
0.0883931
0.0880734
0.0877693
0.0874798
0.0872043
0.0869419
0.086692
0.0864539
0.0862269
0.0860102
0.0858022
0.099133
0.0982387
0.0973961
0.0966016
0.0958518
0.0951438
0.0944748
0.0938422
0.0932437
0.0926771
0.0921404
0.0916319
0.0911497
0.0906923
0.0902582
0.0898461
0.0894547
0.0890828
0.0887293
0.0883932
0.0880735
0.0877694
0.08748
0.0872044
0.086942
0.0866921
0.086454
0.086227
0.0860102
0.0858022
0.0991331
0.0982388
0.0973962
0.0966016
0.0958519
0.0951439
0.0944749
0.0938423
0.0932438
0.0926772
0.0921406
0.091632
0.0911498
0.0906924
0.0902583
0.0898462
0.0894548
0.0890829
0.0887294
0.0883933
0.0880737
0.0877695
0.0874801
0.0872045
0.0869421
0.0866922
0.086454
0.086227
0.0860103
0.0858023
0.0991331
0.0982388
0.0973962
0.0966017
0.095852
0.095144
0.094475
0.0938425
0.093244
0.0926774
0.0921408
0.0916322
0.09115
0.0906926
0.0902585
0.0898464
0.089455
0.0890831
0.0887296
0.0883935
0.0880738
0.0877697
0.0874802
0.0872046
0.0869422
0.0866923
0.0864541
0.0862271
0.0860103
0.0858023
0.0991331
0.0982388
0.0973963
0.0966018
0.0958521
0.0951442
0.0944752
0.0938426
0.0932441
0.0926776
0.0921409
0.0916323
0.0911502
0.0906928
0.0902587
0.0898466
0.0894551
0.0890832
0.0887297
0.0883936
0.0880739
0.0877698
0.0874803
0.0872047
0.0869423
0.0866923
0.0864542
0.0862271
0.0860103
0.0858023
0.0991331
0.0982389
0.0973964
0.0966019
0.0958522
0.0951443
0.0944753
0.0938428
0.0932443
0.0926777
0.0921411
0.0916325
0.0911503
0.0906929
0.0902588
0.0898467
0.0894553
0.0890834
0.0887299
0.0883938
0.0880741
0.0877699
0.0874804
0.0872048
0.0869424
0.0866924
0.0864542
0.0862272
0.0860104
0.0858023
0.0991331
0.0982389
0.0973964
0.096602
0.0958523
0.0951444
0.0944755
0.0938429
0.0932444
0.0926779
0.0921413
0.0916327
0.0911505
0.0906931
0.090259
0.0898469
0.0894555
0.0890836
0.08873
0.0883939
0.0880742
0.08777
0.0874805
0.0872049
0.0869425
0.0866925
0.0864543
0.0862272
0.0860104
0.0858023
0.0991332
0.098239
0.0973965
0.0966021
0.0958524
0.0951445
0.0944756
0.0938431
0.0932446
0.0926781
0.0921414
0.0916329
0.0911507
0.0906933
0.0902592
0.0898471
0.0894557
0.0890837
0.0887302
0.0883941
0.0880744
0.0877702
0.0874807
0.087205
0.0869426
0.0866926
0.0864544
0.0862273
0.0860105
0.0858024
0.0991332
0.0982391
0.0973966
0.0966022
0.0958526
0.0951447
0.0944758
0.0938432
0.0932448
0.0926783
0.0921416
0.0916331
0.0911509
0.0906935
0.0902594
0.0898473
0.0894558
0.0890839
0.0887304
0.0883942
0.0880745
0.0877703
0.0874808
0.0872052
0.0869427
0.0866927