/*--------------------------------*- C++ -*----------------------------------*\
| =========                 |                                                 |
| \\      /  F ield         | OpenFOAM: The Open Source CFD Toolbox           |
|  \\    /   O peration     | Version:  2.2.0                                 |
|   \\  /    A nd           | Web:      www.OpenFOAM.org                      |
|    \\/     M anipulation  |                                                 |
\*---------------------------------------------------------------------------*/
FoamFile
{
    version     2.0;
    format      ascii;
    class       surfaceScalarField;
    location    "1000";
    object      phi;
}
// * * * * * * * * * * * * * * * * * * * * * * * * * * * * * * * * * * * * * //

dimensions      [1 0 -1 0 0 0 0];

internalField   nonuniform List<scalar> 
15000
(
3.07646e-05
-3.07646e-05
3.04657e-05
2.98807e-07
2.19459e-06
2.82711e-05
-4.77916e-05
4.99862e-05
-0.00010416
5.63681e-05
-0.000166074
6.19138e-05
-0.000232705
6.66312e-05
-0.000302929
7.0224e-05
-0.000375548
7.26191e-05
-0.000449321
7.37731e-05
-0.000523069
7.37475e-05
-0.000595721
7.26522e-05
-0.000666323
7.06018e-05
-0.000734008
6.76856e-05
-0.000797964
6.39552e-05
-0.000857391
5.94273e-05
-0.000911478
5.40873e-05
-0.000959346
4.78678e-05
-0.00100005
4.07089e-05
-0.00103261
3.25594e-05
-0.00105298
2.03612e-05
-0.00105984
6.86355e-06
-0.00105481
-5.02697e-06
-0.00103872
-1.60879e-05
-0.00101208
-2.66438e-05
-0.00097518
-3.69008e-05
-0.000928284
-4.68951e-05
-0.000871814
-5.64708e-05
-0.000806422
-6.53915e-05
-0.000733021
-7.34013e-05
-0.000652765
-8.02556e-05
-0.000567038
-8.57269e-05
-0.000477448
-8.95908e-05
-0.000385854
-9.15939e-05
-0.000294448
-9.14055e-05
-0.000205921
-8.85274e-05
-0.000123803
-8.2118e-05
-5.20082e-05
-7.17945e-05
5.05859e-06
-5.70668e-05
5.05861e-06
-4.93439e-06
-2.58302e-05
-3.31467e-05
2.85111e-05
-7.16002e-05
6.67245e-05
-0.000117732
9.61177e-05
-0.000175593
0.00011423
-0.000242035
0.000128356
-0.000314693
0.000139289
-0.000391702
0.000147232
-0.000471369
0.000152287
-0.000552171
0.000154575
-0.000632736
0.000154312
-0.000711845
0.000151761
-0.000788414
0.000147171
-0.000861457
0.000140729
-0.000930036
0.000132534
-0.00099322
0.000122611
-0.00105005
0.000110916
-0.00109949
9.73046e-05
-0.00114037
8.15902e-05
-0.00117132
6.35099e-05
-0.00118817
3.72145e-05
-0.00119013
8.82363e-06
-0.00117925
-1.59086e-05
-0.00115684
-3.84985e-05
-0.00112358
-5.98976e-05
-0.00107985
-8.06364e-05
-0.00102601
-0.000100738
-0.000962599
-0.000119878
-0.000890429
-0.000137562
-0.000810577
-0.000153253
-0.000724394
-0.000166439
-0.000633468
-0.000176653
-0.000539611
-0.000183448
-0.000444861
-0.000186345
-0.000351513
-0.000184753
-0.000262184
-0.000177856
-0.000179845
-0.000164458
-0.000108589
-0.00014305
-5.54007e-05
-0.000110256
-5.03421e-05
-3.78125e-05
1.19823e-05
-7.80066e-05
6.87051e-05
-0.000123147
0.000111865
-0.000175033
0.000148004
-0.000236398
0.000175594
-0.000305791
0.000197749
-0.000381385
0.000214883
-0.000461412
0.000227259
-0.000544195
0.00023507
-0.000628214
0.000238593
-0.000712098
0.000238196
-0.000794618
0.000234281
-0.00087465
0.000227203
-0.000951131
0.00021721
-0.00102302
0.00020442
-0.00108924
0.000188837
-0.0011487
0.000170371
-0.00120019
0.000148795
-0.00124235
0.00012375
-0.00127352
9.46791e-05
-0.00128932
5.30183e-05
-0.0012892
8.69862e-06
-0.0012755
-2.96047e-05
-0.0012497
-6.42991e-05
-0.00121254
-9.70598e-05
-0.00116445
-0.000128719
-0.00110591
-0.000159285
-0.00103755
-0.000188237
-0.000960311
-0.000214798
-0.000875434
-0.00023813
-0.000784421
-0.000257451
-0.000689003
-0.000272071
-0.000591082
-0.000281369
-0.000492698
-0.000284728
-0.000395999
-0.000281452
-0.000303197
-0.000270659
-0.000216457
-0.000251197
-0.000137961
-0.000221546
-6.86397e-05
-0.000179577
-0.000118982
-5.60061e-05
6.79883e-05
-0.00010814
0.000120839
-0.000162567
0.000166293
-0.000221705
0.000207141
-0.000287608
0.000241497
-0.000359975
0.000270116
-0.000437872
0.00029278
-0.00052006
0.000309448
-0.000605189
0.000320199
-0.000691915
0.000325319
-0.000778941
0.000325222
-0.00086502
0.00032036
-0.000948938
0.00031112
-0.00102948
0.000297755
-0.00110543
0.000280363
-0.0011755
0.000258908
-0.00123837
0.000233245
-0.00129264
0.000203065
-0.00133671
0.000167819
-0.00136863
0.000126598
-0.00138375
6.81451e-05
-0.00138171
6.6535e-06
-0.00136521
-4.61025e-05
-0.00133596
-9.35535e-05
-0.00129477
-0.000138242
-0.00124221
-0.000181286
-0.00117882
-0.000222674
-0.00110539
-0.000261671
-0.00102299
-0.000297194
-0.000933028
-0.000328092
-0.00083716
-0.00035332
-0.000737234
-0.000371997
-0.000635199
-0.000383404
-0.000533016
-0.000386911
-0.000432563
-0.000381905
-0.000335524
-0.000367698
-0.000243253
-0.000343467
-0.000156734
-0.000308065
-7.62513e-05
-0.00026006
-0.000195233
-6.38018e-05
0.00013179
-0.000126749
0.000183786
-0.000190734
0.000230277
-0.000257572
0.000273979
-0.00032888
0.000312806
-0.000405002
0.000346238
-0.000485726
0.000373504
-0.000570419
0.000394141
-0.000658171
0.000407951
-0.000747899
0.000415047
-0.000838412
0.000415735
-0.00092844
0.000410389
-0.00101665
0.000399329
-0.00110164
0.000382749
-0.00118197
0.000360686
-0.00125611
0.00033305
-0.0013225
0.000299639
-0.0013795
0.000260066
-0.00142526
0.000213579
-0.00145753
0.000158863
-0.00147142
8.20409e-05
-0.00146686
2.08588e-06
-0.00144697
-6.59916e-05
-0.00141375
-0.000126771
-0.00136814
-0.000183849
-0.00131081
-0.000238622
-0.00124242
-0.000291066
-0.00116387
-0.000340215
-0.00107639
-0.000384671
-0.000981525
-0.000422961
-0.000881059
-0.000453785
-0.000776935
-0.000476121
-0.000671111
-0.000489228
-0.000565428
-0.000492595
-0.000461479
-0.000485854
-0.000360487
-0.00046869
-0.00026323
-0.000440724
-0.000170134
-0.000401161
-8.17914e-05
-0.000348402
-0.000277024
-6.93964e-05
0.000201186
-0.000139345
0.000253734
-0.000210593
0.000301526
-0.000284075
0.000347461
-0.000360786
0.000389517
-0.000441162
0.000426614
-0.000525337
0.000457678
-0.000613102
0.000481906
-0.00070393
0.000498778
-0.000796999
0.000508116
-0.000891238
0.000509974
-0.000985365
0.000504516
-0.00107793
0.000491895
-0.00116735
0.000472165
-0.00125193
0.000445265
-0.00132991
0.000411029
-0.00139946
0.000369193
-0.00145868
0.000319291
-0.00150547
0.000260364
-0.00153724
0.000190635
-0.00154896
9.37603e-05
-0.00154108
-5.79219e-06
-0.00151721
-8.98661e-05
-0.00147959
-0.000164392
-0.00142933
-0.00023411
-0.0013672
-0.000300748
-0.00129398
-0.000364283
-0.00121067
-0.000423526
-0.00111859
-0.000476751
-0.00101939
-0.000522166
-0.000914939
-0.000558233
-0.000807232
-0.000583828
-0.000698193
-0.000598268
-0.00058953
-0.000601257
-0.000482598
-0.000592785
-0.000378308
-0.00057298
-0.000277138
-0.000541895
-0.000179341
-0.000498957
-8.58015e-05
-0.000441942
-0.000362826
-7.28244e-05
0.000274011
-0.000147352
0.000328262
-0.000223756
0.00037793
-0.000302437
0.000426142
-0.00038393
0.000471009
-0.000468541
0.000511225
-0.00055646
0.000545597
-0.000647671
0.000573118
-0.00074188
0.000592987
-0.000838455
0.000604692
-0.00093643
0.000607948
-0.00103452
0.000602607
-0.00113118
0.000588551
-0.00122464
0.000565625
-0.00131298
0.000533614
-0.00139421
0.00049225
-0.00146621
0.0004412
-0.00152684
0.000379917
-0.00157371
0.000307234
-0.00160392
0.000220848
-0.00161242
0.000102258
-0.00160045
-1.77611e-05
-0.00157211
-0.000118202
-0.00152989
-0.000206619
-0.00147506
-0.000288941
-0.00140849
-0.000367312
-0.00133103
-0.00044175
-0.0012437
-0.000510853
-0.00114788
-0.000572572
-0.00104525
-0.000624795
-0.000937724
-0.000665758
-0.000827282
-0.00069427
-0.000715796
-0.000709754
-0.000604867
-0.000712186
-0.000495706
-0.000701947
-0.000389079
-0.000679607
-0.000285366
-0.000645607
-0.000184794
-0.000599529
-8.83125e-05
-0.000538424
-0.000451138
-7.43427e-05
0.000348354
-0.000151523
0.000405442
-0.000231219
0.000457625
-0.000313559
0.000508483
-0.000398809
0.000556259
-0.000487116
0.000599533
-0.000578588
0.000637069
-0.000673215
0.000667745
-0.000770777
0.000690549
-0.000870731
0.000704646
-0.000972164
0.000709381
-0.00107378
0.000704225
-0.00117395
0.000688719
-0.00127075
0.000662427
-0.00136206
0.000624926
-0.00144563
0.000575815
-0.00151911
0.000514677
-0.00158007
0.000440882
-0.00162589
0.000353056
-0.00165338
0.000248335
-0.00165764
0.000106519
-0.00164091
-3.44921e-05
-0.00160783
-0.000151286
-0.00156108
-0.000253364
-0.00150211
-0.000347917
-0.00143183
-0.000437591
-0.00135108
-0.000522498
-0.00126088
-0.000601056
-0.00116255
-0.000670902
-0.00105774
-0.000729598
-0.000948342
-0.000775159
-0.000836279
-0.000806333
-0.000723368
-0.000822665
-0.000611149
-0.000824406
-0.000500782
-0.000812313
-0.000393024
-0.000787365
-0.000288277
-0.000750354
-0.000186767
-0.000701039
-8.93e-05
-0.000635891
-0.000540438
-7.43017e-05
0.000422655
-0.000152423
0.000483564
-0.00023368
0.000538882
-0.000318087
0.000592889
-0.000405778
0.00064395
-0.000496788
0.000690544
-0.000591104
0.000731384
-0.000688624
0.000765265
-0.000789076
0.000791001
-0.000891903
0.000807473
-0.000996179
0.000813657
-0.00110058
0.000808621
-0.00120337
0.000791517
-0.00130252
0.000761573
-0.00139571
0.000718112
-0.00148045
0.000660563
-0.00155419
0.000588412
-0.00161425
0.000500941
-0.00165778
0.000396586
-0.00168134
0.0002719
-0.00168044
0.000105613
-0.00165847
-5.64533e-05
-0.00162063
-0.000189132
-0.00156975
-0.000304243
-0.00150738
-0.000410285
-0.00143446
-0.000510509
-0.00135177
-0.000605193
-0.0012602
-0.000692627
-0.00116095
-0.000770147
-0.00105557
-0.000834982
-0.000945818
-0.000884907
-0.000833564
-0.000918587
-0.000720563
-0.000935666
-0.000608332
-0.000936636
-0.000498058
-0.000922588
-0.000390557
-0.000894866
-0.000286308
-0.000854603
-0.000185539
-0.000801809
-8.88094e-05
-0.000732621
-0.000629248
-7.28747e-05
0.00049553
-0.000150379
0.000561068
-0.000231565
0.000620068
-0.000316417
0.000677741
-0.000405029
0.000732561
-0.000497384
0.000782899
-0.000593367
0.000827367
-0.000692754
0.000864652
-0.000795155
0.000893403
-0.000899922
0.000912239
-0.00100605
0.000919787
-0.00111214
0.000914714
-0.00121639
0.000895761
-0.00131661
0.00086179
-0.00141033
0.000811832
-0.00149488
0.000745119
-0.00156749
0.000661022
-0.00162529
0.000558742
-0.00166526
0.000436549
-0.00168378
0.000290424
-0.00167698
9.88099e-05
-0.00164959
-8.38398e-05
-0.00160725
-0.00023147
-0.00155291
-0.000358591
-0.00148818
-0.000475014
-0.00141399
-0.000584698
-0.00133099
-0.00068819
-0.00123989
-0.000783729
-0.00114166
-0.000868378
-0.00103762
-0.000939021
-0.000929385
-0.000993142
-0.000818698
-0.00102927
-0.000707263
-0.0010471
-0.0005966
-0.0010473
-0.000487948
-0.00103124
-0.000382217
-0.0010006
-0.000279976
-0.000956844
-0.000181462
-0.000900323
-8.69783e-05
-0.000827104
-0.000716226
-7.01485e-05
0.000565678
-0.000145572
0.000636492
-0.000225111
0.000699607
-0.000308761
0.000761391
-0.000396626
0.000820426
-0.000488687
0.00087496
-0.000584771
0.000923451
-0.000684547
0.000964428
-0.000787494
0.000996349
-0.00089283
0.00101758
-0.000999438
0.0010264
-0.00110581
0.00102109
-0.00121003
0.000999984
-0.00130981
0.000961565
-0.00140253
0.000904552
-0.00148537
0.000827961
-0.00155539
0.000731045
-0.00160959
0.000612937
-0.00164482
0.00047178
-0.00165743
0.000303033
-0.00164436
8.57406e-05
-0.00161171
-0.000116488
-0.00156544
-0.000277743
-0.0015085
-0.00041553
-0.00144262
-0.000540894
-0.0013687
-0.000658613
-0.00128725
-0.000769642
-0.00119869
-0.00087229
-0.00110366
-0.000963405
-0.00100318
-0.0010395
-0.000898609
-0.00109771
-0.000791536
-0.00113635
-0.000683598
-0.00115504
-0.000576314
-0.00115458
-0.000470981
-0.00113657
-0.000368598
-0.00110298
-0.00026982
-0.00105562
-0.000174914
-0.000995229
-8.3978e-05
-0.00091804
-0.000800204
-6.61667e-05
0.000631845
-0.000138098
0.000708423
-0.000214441
0.00077595
-0.000295215
0.000842165
-0.000380559
0.000905771
-0.000470486
0.000964886
-0.000564809
0.00101777
-0.000663128
0.00106275
-0.000764813
0.00109803
-0.000868953
0.00112172
-0.000974304
0.00113175
-0.00107924
0.00112602
-0.00118173
0.00110247
-0.00127937
0.00105921
-0.00136944
0.000994627
-0.00144902
0.000907536
-0.00151505
0.000797076
-0.00156446
0.000662345
-0.0015941
0.000501421
-0.00160039
0.000309327
-0.00158125
6.66017e-05
-0.00154396
-0.000153785
-0.00149456
-0.000327144
-0.00143599
-0.000474095
-0.00137016
-0.000606725
-0.00129804
-0.000730737
-0.00121999
-0.00084769
-0.00113612
-0.000956163
-0.00104662
-0.0010529
-0.000952081
-0.00113404
-0.000853519
-0.00119628
-0.000752304
-0.00123756
-0.000649968
-0.00125738
-0.000548011
-0.00125654
-0.000447767
-0.00123682
-0.000350308
-0.00120044
-0.000256371
-0.00114956
-0.000166276
-0.00108532
-7.99911e-05
-0.00100433
-0.000880195
-6.09516e-05
0.000692797
-0.000128009
0.000775481
-0.000199622
0.000847562
-0.000275827
0.00091837
-0.000356809
0.000986752
-0.000442629
0.00105071
-0.000533126
0.00110827
-0.000627881
0.0011575
-0.000726196
0.00119635
-0.000827065
0.00122258
-0.000929136
0.00123382
-0.00103068
0.00122756
-0.00112956
0.00120136
-0.0012233
0.00115294
-0.00130909
0.00108043
-0.00138397
0.000982408
-0.00144485
0.000857957
-0.00148869
0.000706191
-0.00151247
0.000525201
-0.00151282
0.000309676
-0.0014886
4.2384e-05
-0.00144778
-0.000194608
-0.00139622
-0.000378708
-0.0013369
-0.000533416
-0.00127206
-0.000671556
-0.00120296
-0.000799841
-0.00112994
-0.000920713
-0.00105276
-0.00103334
-0.000971076
-0.00113458
-0.000884889
-0.00122023
-0.000794741
-0.00128642
-0.00070169
-0.00133061
-0.000607104
-0.00135196
-0.00051243
-0.00135121
-0.000419015
-0.00133023
-0.000327986
-0.00129147
-0.000240155
-0.00123739
-0.000155921
-0.00116956
-7.52013e-05
-0.00108505
-0.000955397
-5.45188e-05
0.000747315
-0.000115344
0.000836306
-0.000180708
0.000912927
-0.000250651
0.000988313
-0.000325399
0.0010615
-0.000405075
0.00113038
-0.000489573
0.00119277
-0.000578499
0.00124643
-0.000671148
0.001289
-0.000766475
0.00131791
-0.000863068
0.00133041
-0.00095913
0.00132362
-0.00105248
0.00129471
-0.00114059
0.00124105
-0.00122065
0.00116048
-0.00128969
0.00105145
-0.00134473
0.000912995
-0.00138287
0.00074434
-0.00140134
0.000543669
-0.00139711
0.000305448
-0.00136976
1.50242e-05
-0.00132704
-0.000237323
-0.00127434
-0.000431412
-0.00121489
-0.000592867
-0.00115157
-0.000734872
-0.00108619
-0.000865216
-0.00101933
-0.000987581
-0.000950462
-0.00110221
-0.000878622
-0.00120642
-0.000803038
-0.00129582
-0.000723602
-0.00136586
-0.000640927
-0.00141329
-0.000556137
-0.00143675
-0.000470581
-0.00143677
-0.000385597
-0.00141521
-0.00030235
-0.00137472
-0.00022173
-0.00131801
-0.000144235
-0.00124705
-6.9801e-05
-0.00115948
-0.0010252
-4.68854e-05
0.000794201
-0.00010014
0.000889561
-0.00015776
0.000970547
-0.000219763
0.00105032
-0.000286408
0.00112815
-0.000357886
0.00120186
-0.000434173
0.00126906
-0.000514946
0.0013272
-0.000599553
0.0013736
-0.00068698
0.00140534
-0.000775833
0.00141926
-0.000864323
0.00141211
-0.000950285
0.00138067
-0.00103122
0.00132198
-0.00110438
0.00123365
-0.00116692
0.00111399
-0.00121605
0.000962117
-0.00124912
0.000777415
-0.00126364
0.000558192
-0.00125686
0.000298662
-0.00122917
-1.26617e-05
-0.00118688
-0.00027962
-0.00113414
-0.000484149
-0.00107506
-0.00065195
-0.00101342
-0.00079651
-0.000951954
-0.000926681
-0.000891766
-0.00104777
-0.000832283
-0.00116169
-0.000771869
-0.00126683
-0.000708814
-0.00135887
-0.000642129
-0.00143255
-0.000571808
-0.00148361
-0.000498628
-0.00150993
-0.00042379
-0.00151161
-0.000348599
-0.00149041
-0.000274259
-0.00144906
-0.000201738
-0.00139053
-0.000131648
-0.00131714
-6.40056e-05
-0.00122712
-0.0010892
-3.8058e-05
0.000832259
-8.24129e-05
0.000933915
-0.000130808
0.00101894
-0.000183207
0.00110272
-0.000239895
0.00118483
-0.00030113
0.0012631
-0.000366989
0.00133492
-0.000437269
0.00139748
-0.000511433
0.00144777
-0.000588583
0.00148249
-0.000667433
0.00149811
-0.000746306
0.00149099
-0.000823151
0.00145751
-0.000895601
0.00139443
-0.00096109
0.00129913
-0.00101699
0.00116989
-0.00106081
0.00100593
-0.00109025
0.000806856
-0.00110309
0.00057103
-0.00109661
0.000292185
-0.00107128
-3.7991e-05
-0.00103133
-0.000319575
-0.000979888
-0.000535586
-0.000922011
-0.000709827
-0.000862424
-0.000856096
-0.000804945
-0.00098416
-0.000751567
-0.00110115
-0.000702001
-0.00121126
-0.000654102
-0.00131473
-0.000605095
-0.00140788
-0.000552861
-0.00148478
-0.000496563
-0.00153991
-0.000436503
-0.00156999
-0.000373673
-0.00157444
-0.000309335
-0.00155474
-0.000244734
-0.00151366
-0.00018093
-0.00145433
-0.000118663
-0.00137941
-5.80662e-05
-0.00128772
-0.00114727
-2.79853e-05
0.000860244
-6.20713e-05
0.000968001
-9.97308e-05
0.0010566
-0.000140836
0.00114382
-0.000185679
0.00122968
-0.000234588
0.00131201
-0.000287757
0.00138808
-0.000345142
0.00145487
-0.000406395
0.00150902
-0.00047082
0.00154691
-0.000537352
0.00156465
-0.000604544
0.00155818
-0.000670585
0.00152356
-0.000733364
0.00145721
-0.000790616
0.00135639
-0.000840063
0.00121934
-0.000879579
0.00104545
-0.000907235
0.000834513
-0.000920972
0.000584766
-0.000917758
0.000288971
-0.000896418
-5.93301e-05
-0.000860039
-0.000355954
-0.000811894
-0.000583731
-0.00075719
-0.000764532
-0.000701181
-0.000912105
-0.00064856
-0.00103678
-0.000602383
-0.00114732
-0.000563111
-0.00125053
-0.00052849
-0.00134936
-0.000494742
-0.00144162
-0.000458392
-0.00152113
-0.000417524
-0.00158077
-0.000371813
-0.0016157
-0.000321983
-0.00162427
-0.000269247
-0.00160748
-0.00021491
-0.00156799
-0.000160145
-0.0015091
-0.000105835
-0.00143372
-5.22651e-05
-0.00134129
-0.00119953
-1.65581e-05
0.000876802
-3.88972e-05
0.000990341
-6.41631e-05
0.00108187
-9.21301e-05
0.00117179
-0.000123075
0.00126062
-0.000157385
0.00134632
-0.000195385
0.00142608
-0.000237224
0.00149671
-0.000282802
0.0015546
-0.000331722
0.00159583
-0.000383256
0.00161618
-0.000436328
0.00161125
-0.000489516
0.00157674
-0.000541085
0.00150878
-0.000589219
0.00140452
-0.000632064
0.00126219
-0.000667874
0.00108126
-0.000694952
0.000861591
-0.000711101
0.000600914
-0.000712394
0.000290265
-0.000696254
-7.54704e-05
-0.000665795
-0.000386412
-0.000624351
-0.000625176
-0.000576649
-0.000812234
-0.000527787
-0.000960967
-0.000482724
-0.00108184
-0.000445379
-0.00118467
-0.000417333
-0.00127857
-0.000396881
-0.00136981
-0.000379612
-0.00145889
-0.000360576
-0.00154017
-0.000336513
-0.00160484
-0.000306284
-0.00164593
-0.000270277
-0.00166028
-0.000229666
-0.00164809
-0.00018586
-0.0016118
-0.000140185
-0.00155478
-9.37031e-05
-0.0014802
-4.68753e-05
-0.00138812
-0.00124641
-3.62562e-06
0.000880428
-1.23428e-05
0.000999058
-2.31586e-05
0.00109268
-3.57022e-05
0.00118433
-5.02107e-05
0.00127513
-6.71075e-05
0.00136321
-8.68463e-05
0.00144582
-0.000109799
0.00151966
-0.000136179
0.00158098
-0.000165983
0.00162564
-0.000198963
0.00164916
-0.000234585
0.00164687
-0.000271943
0.0016141
-0.000309526
0.00154636
-0.000346341
0.00144134
-0.000381096
0.00129694
-0.000412425
0.00111259
-0.000438787
0.000887952
-0.000457759
0.000619887
-0.000464338
0.000296843
-0.000455322
-8.44861e-05
-0.000434587
-0.000407148
-0.000405003
-0.000654759
-0.00037021
-0.000847027
-0.00033443
-0.000996748
-0.00030209
-0.00111418
-0.000277347
-0.00120941
-0.000262902
-0.00129302
-0.000258319
-0.00137439
-0.000259316
-0.0014579
-0.000259525
-0.00153996
-0.000254066
-0.0016103
-0.000240749
-0.00165925
-0.000219527
-0.0016815
-0.000191573
-0.00167604
-0.00015848
-0.00164489
-0.000121799
-0.00159146
-8.28217e-05
-0.00151918
-4.22137e-05
-0.00142872
-0.00128862
1.10572e-05
0.000869371
1.83373e-05
0.000991778
2.44805e-05
0.00108654
3.01341e-05
0.00117868
3.52009e-05
0.00127006
3.92768e-05
0.00135914
4.1825e-05
0.00144327
4.2275e-05
0.00151921
4.00964e-05
0.00158316
3.4851e-05
0.00163088
2.62311e-05
0.00165778
1.41043e-05
0.001659
-1.39927e-06
0.00162961
-1.97883e-05
0.00156475
-4.06919e-05
0.00146224
-6.3545e-05
0.0013198
-8.753e-05
0.00113657
-0.000111408
0.00091183
-0.000132841
0.00064132
-0.0001466
0.000310603
-0.000149575
-8.15113e-05
-0.000144903
-0.00041182
-0.000134435
-0.000665227
-0.000120576
-0.000860885
-0.000106152
-0.00101117
-9.43134e-05
-0.00112602
-8.86108e-05
-0.00121511
-9.23932e-05
-0.00128924
-0.000107011
-0.00135977
-0.000129545
-0.00143536
-0.000152486
-0.00151702
-0.000168957
-0.00159383
-0.000175243
-0.00165296
-0.000170631
-0.00168611
-0.000156355
-0.00169032
-0.000134328
-0.00166692
-0.000106465
-0.00161932
-7.43804e-05
-0.00155126
-3.89918e-05
-0.00146411
-0.00132762
2.45614e-05
0.000844809
4.71859e-05
0.000969153
6.98942e-05
0.00106383
9.35267e-05
0.00115504
0.000118145
0.00124544
0.000143469
0.00133381
0.000169008
0.00141774
0.000194135
0.00149408
0.000218146
0.00155915
0.000240289
0.00160874
0.000259803
0.00163827
0.000275935
0.00164287
0.000287934
0.00161761
0.000294841
0.00155785
0.000296474
0.00146061
0.000292618
0.00132365
0.00028341
0.00114578
0.000269658
0.000925582
0.000253253
0.000657725
0.000237316
0.00032654
0.000222303
-6.64982e-05
0.000207376
-0.000396892
0.000192785
-0.000650636
0.000178001
-0.000846102
0.000162376
-0.000995547
0.00014491
-0.00110856
0.000123866
-0.00119407
9.67308e-05
-0.0012621
6.13166e-05
-0.00132436
1.82239e-05
-0.00139227
-2.73838e-05
-0.00147141
-6.73856e-05
-0.00155382
-9.52788e-05
-0.00162507
-0.000109325
-0.00167206
-0.000110797
-0.00168885
-0.000101942
-0.00167577
-8.5011e-05
-0.00163625
-6.19038e-05
-0.00157437
-3.37756e-05
-0.00149224
-0.00136139
3.33839e-05
0.000811425
6.65639e-05
0.000935973
0.000100862
0.00102953
0.000137148
0.00111876
0.000175623
0.00120697
0.000216149
0.00129329
0.000258346
0.00137554
0.000301647
0.00145078
0.000345325
0.00151547
0.000388511
0.00156555
0.000430207
0.00159657
0.00046929
0.00160378
0.000504494
0.0015824
0.000534385
0.00152796
0.000557873
0.00143712
0.000574034
0.00130749
0.00058234
0.00113747
0.000582928
0.000924994
0.000576658
0.000663995
0.000563764
0.000339435
0.000542291
-4.5025e-05
0.000513071
-0.000367673
0.000477699
-0.000615264
0.000437675
-0.000806078
0.00039447
-0.000952342
0.000349183
-0.00106327
0.000302113
-0.001147
0.000252447
-0.00121244
0.000198685
-0.0012706
0.00014038
-0.00133397
8.01581e-05
-0.00141119
2.49743e-05
-0.00149864
-1.87827e-05
-0.00158131
-4.82928e-05
-0.00164255
-6.34051e-05
-0.00167374
-6.66298e-05
-0.00167255
-6.04016e-05
-0.00164248
-4.67555e-05
-0.00158802
-2.69241e-05
-0.00151207
-0.00138831
4.0162e-05
0.000771263
8.14159e-05
0.000894719
0.00012449
0.00098646
0.000170292
0.00107296
0.000219142
0.00115812
0.000271024
0.00124141
0.000325666
0.0013209
0.000382574
0.00139387
0.000441048
0.001457
0.000500183
0.00150642
0.000558864
0.00153789
0.000615763
0.00154688
0.000669324
0.00152884
0.000717782
0.0014795
0.000759461
0.00139544
0.00079282
0.00127413
0.000816627
0.00111367
0.000830084
0.000911537
0.000832551
0.000661528
0.000821646
0.00035034
0.00079472
-1.80993e-05
0.000754642
-0.000327595
0.000703559
-0.00056418
0.000644241
-0.000746761
0.000579486
-0.000887587
0.000511768
-0.000995551
0.000442831
-0.00107806
0.00037325
-0.00114286
0.000302481
-0.00119983
0.000230133
-0.00126162
0.000158446
-0.0013395
9.30143e-05
-0.00143321
3.89727e-05
-0.00152727
-9.49106e-07
-0.00160263
-2.65847e-05
-0.0016481
-3.91531e-05
-0.00165998
-4.12189e-05
-0.00164041
-3.49525e-05
-0.00159428
-2.16353e-05
-0.00152539
-0.00140995
4.53938e-05
0.00072587
9.28955e-05
0.000847218
0.000142689
0.000936666
0.000195692
0.00101995
0.000252327
0.00110148
0.000312684
0.00118105
0.000376591
0.00125699
0.000443637
0.00132683
0.000513173
0.00138746
0.000584302
0.00143529
0.000655866
0.00146632
0.000726429
0.00147632
0.000794262
0.00146101
0.000857373
0.00141639
0.000913688
0.00133912
0.000961164
0.00122666
0.000997923
0.00107691
0.00102227
0.000887187
0.00103224
0.000651557
0.00102395
0.00035863
0.00099362
1.22352e-05
0.000945393
-0.000279368
0.000882733
-0.00050152
0.000809198
-0.000673226
0.000728309
-0.000806698
0.000643362
-0.000910603
0.00055708
-0.00099178
0.000471164
-0.00105694
0.000386074
-0.00111474
0.00030179
-0.00117733
0.000220006
-0.00125771
0.00014554
-0.00135874
8.35912e-05
-0.00146532
3.64673e-05
-0.00155551
3.42299e-06
-0.00161506
-1.6669e-05
-0.00163989
-2.55561e-05
-0.00163152
-2.5359e-05
-0.00159448
-1.73961e-05
-0.00153335
-0.00142735
4.9366e-05
0.000676504
0.000101681
0.000794903
0.000156604
0.000881743
0.000215019
0.000961539
0.00027742
0.00103908
0.000343987
0.00111448
0.000414636
0.00118634
0.000489038
0.00125242
0.00056661
0.00130989
0.000646492
0.00135541
0.000727524
0.00138529
0.000808222
0.00139562
0.00088676
0.00138247
0.000960987
0.00134216
0.00102855
0.00127156
0.00108703
0.00116818
0.00113399
0.00102994
0.00116701
0.000854166
0.0011831
0.000635467
0.0011776
0.000364135
0.00114578
4.40569e-05
0.00109235
-0.000225938
0.00102214
-0.000431314
0.000939111
-0.000590197
0.000847097
-0.000714684
0.000749814
-0.00081332
0.000650593
-0.000892558
0.000551973
-0.000958319
0.000455391
-0.00101816
0.000361539
-0.00108348
0.000271979
-0.00116815
0.000190651
-0.00127741
0.000122132
-0.0013968
6.86935e-05
-0.00150207
2.99048e-05
-0.00157627
3.81958e-06
-0.0016138
-1.12019e-05
-0.0016165
-1.66312e-05
-0.00158905
-1.36158e-05
-0.00153637
-0.00144096
5.23196e-05
0.000624184
0.000108273
0.00073895
0.000167023
0.000822992
0.000229374
0.000899188
0.000295872
0.000972583
0.000366769
0.00104359
0.000442063
0.00111105
0.000521508
0.00117298
0.000604592
0.0012268
0.000690509
0.00126949
0.000778125
0.00129768
0.000865942
0.00130781
0.000952074
0.00129634
0.00103426
0.00125997
0.00110997
0.00119585
0.00117647
0.00110169
0.00123094
0.000975473
0.00127039
0.000814716
0.00129111
0.000614747
0.00128768
0.000367559
0.00125565
7.6094e-05
0.00120015
-0.000170446
0.00112629
-0.000357447
0.00103814
-0.000502053
0.00093965
-0.00061619
0.00083467
-0.00070834
0.000726846
-0.000784734
0.000619301
-0.000850775
0.000514358
-0.000913212
0.00041363
-0.000982754
0.00031891
-0.00107343
0.000233207
-0.00119171
0.000159988
-0.00132358
0.000101191
-0.00144327
5.6647e-05
-0.00153172
2.48922e-05
-0.00158205
4.01173e-06
-0.00159562
-7.27219e-06
-0.00157777
-9.5608e-06
-0.00153408
-0.00145052
5.43876e-05
0.000569796
0.000112957
0.000680381
0.00017441
0.000761539
0.000239435
0.000834163
0.000308603
0.000903414
0.000382232
0.000969957
0.0004604
0.00103288
0.000542943
0.00109044
0.000629425
0.00114032
0.000719105
0.00117981
0.000810882
0.0012059
0.00090326
0.00121543
0.000994317
0.00120528
0.00108172
0.00117257
0.00116279
0.00111478
0.00123462
0.00102986
0.00129412
0.00091598
0.00133792
0.000770911
0.00136192
0.000590748
0.00136037
0.000369111
0.00132915
0.000107315
0.00127374
-0.000115039
0.00119928
-0.000282989
0.00110974
-0.000412507
0.0010089
-0.000515352
0.000900547
-0.00059999
0.000788386
-0.000672574
0.000675895
-0.000738284
0.000566179
-0.000803495
0.000461887
-0.000878462
0.000365194
-0.000976741
0.000277941
-0.00110446
0.000201948
-0.00124759
0.000138593
-0.00137992
8.81086e-05
-0.00148124
4.97042e-05
-0.00154364
2.21303e-05
-0.00156805
4.19035e-06
-0.00155983
-4.46436e-06
-0.00152542
-0.00145499
5.56314e-05
0.000514165
0.000115868
0.000620143
0.000179008
0.000698399
0.000245584
0.000767587
0.00031618
0.000832819
0.000391173
0.000894964
0.000470722
0.000953331
0.000554744
0.00100641
0.000642884
0.00105218
0.000734459
0.00108824
0.000828403
0.00111195
0.00092322
0.00112061
0.00101696
0.00111155
0.00110723
0.00108229
0.00119128
0.00103073
0.00126608
0.000955052
0.0013284
0.000853658
0.00137471
0.000724602
0.00140073
0.00056473
0.00140074
0.000369104
0.00137108
0.00013697
0.00131741
-6.13654e-05
0.00124481
-0.000210388
0.00115697
-0.000324666
0.00105744
-0.000415821
0.000949765
-0.000492317
0.000837529
-0.000560338
0.000724408
-0.000625163
0.000614214
-0.000693301
0.000510583
-0.000774831
0.000415814
-0.000881972
0.00033008
-0.00101872
0.000253107
-0.00117062
0.000185601
-0.00131241
0.000128439
-0.00142408
8.18747e-05
-0.00149708
4.55924e-05
-0.00153177
1.91444e-05
-0.00153338
2.43177e-06
-0.00150871
-0.00145256
5.60575e-05
0.000458107
0.00011703
0.000559171
0.000180884
0.000634545
0.000247984
0.000700486
0.000318912
0.000761891
0.000394106
0.00081977
0.000473803
0.000873634
0.000558003
0.000922214
0.000646415
0.000963769
0.000738403
0.00099625
0.000832918
0.00101744
0.000928453
0.00102508
0.00102303
0.00101697
0.00111421
0.000991108
0.00119922
0.000945716
0.001275
0.000879275
0.00133827
0.000790387
0.00138548
0.000677399
0.00141237
0.000537836
0.00141353
0.000367941
0.00138602
0.000164481
0.00133538
-1.07285e-05
0.00126654
-0.000141548
0.00118299
-0.000241108
0.00108802
-0.00032085
0.000984887
-0.000389188
0.000876993
-0.000452444
0.000768169
-0.000516339
0.000662845
-0.000587977
0.000565201
-0.000677187
0.000476777
-0.000793547
0.000395438
-0.000937386
0.000318744
-0.00109392
0.000246867
-0.00124054
0.000181606
-0.00135882
0.000124642
-0.00144012
7.697e-05
-0.00148409
3.91353e-05
-0.00149554
1.17535e-05
-0.00148133
-0.0014408
5.5628e-05
0.000402479
0.000116367
0.000498432
0.000179966
0.000570946
0.000246628
0.000633825
0.000316928
0.00069159
0.000391365
0.000745334
0.000470245
0.000794754
0.000553627
0.000838832
0.000641265
0.000876131
0.000732537
0.000904977
0.000826387
0.000923589
0.000921279
0.000930185
0.0010152
0.000923054
0.0011057
0.000900604
0.00119001
0.000861408
0.0012651
0.000804184
0.00132776
0.000727727
0.00137451
0.000630645
0.00140131
0.000511037
0.00140326
0.000365999
0.00137868
0.000189061
0.00133226
3.56838e-05
0.00126847
-7.77564e-05
0.00119142
-0.000164058
0.00110408
-0.000233508
0.00100945
-0.00029456
0.000910845
-0.000353837
0.000812306
-0.0004178
0.00071851
-0.00049418
0.000632944
-0.000591622
0.000554954
-0.000715557
0.000479841
-0.000862272
0.000403605
-0.00101769
0.000326306
-0.00116324
0.000250858
-0.00128337
0.000180624
-0.00136988
0.000118236
-0.00142171
6.55491e-05
-0.00144286
2.41001e-05
-0.00143988
-0.0014167
5.42685e-05
0.000348211
0.000113736
0.000438965
0.000176087
0.000508595
0.000241404
0.000568508
0.000310264
0.000622729
0.000383206
0.000672392
0.000460573
0.000717387
0.000542441
0.000756963
0.000628562
0.00079001
0.000718295
0.000815245
0.000810544
0.00083134
0.000903728
0.000837
0.000995803
0.00083098
0.00108433
0.000812073
0.0011666
0.000779144
0.00123967