/*--------------------------------*- C++ -*----------------------------------*\
| =========                 |                                                 |
| \\      /  F ield         | OpenFOAM: The Open Source CFD Toolbox           |
|  \\    /   O peration     | Version:  2.2.0                                 |
|   \\  /    A nd           | Web:      www.OpenFOAM.org                      |
|    \\/     M anipulation  |                                                 |
\*---------------------------------------------------------------------------*/
FoamFile
{
    version     2.0;
    format      ascii;
    class       volVectorField;
    location    "1000";
    object      U;
}
// * * * * * * * * * * * * * * * * * * * * * * * * * * * * * * * * * * * * * //

dimensions      [0 1 -1 0 0 0 0];

internalField   nonuniform List<vector> 
7600
(
(0.0183733 -0.0338744 -9.98371e-21)
(0.0369151 -0.0162762 -8.07703e-21)
(0.0321383 0.00584422 0)
(-0.0257058 0.0254536 5.70549e-21)
(-0.0791128 0.0248955 6.88599e-21)
(-0.14047 0.0240971 0)
(-0.207249 0.0230371 0)
(-0.278399 0.0216751 0)
(-0.352633 0.0201175 -5.51128e-21)
(-0.42867 0.0184056 1.46936e-19)
(-0.505236 0.0166126 1.48887e-19)
(-0.581168 0.0148091 4.94868e-21)
(-0.655425 0.0130492 5.00184e-21)
(-0.727078 0.0113673 0)
(-0.795268 0.00978145 0)
(-0.859169 0.00829783 0)
(-0.917946 0.0069138 0)
(-0.970751 0.00561848 0)
(-1.01676 0.00439278 0)
(-1.05461 0.00323372 0)
(-1.08201 0.00206423 0)
(-1.09597 0.000814322 -3.12369e-19)
(-1.09693 -0.000561543 -5.12294e-19)
(-1.08614 -0.00224159 0)
(-1.0642 -0.00412426 1.54818e-20)
(-1.0315 -0.006251 1.84831e-20)
(-0.988296 -0.00874355 -3.62236e-19)
(-0.934893 -0.0116242 -3.79819e-19)
(-0.871839 -0.0148901 2.67572e-20)
(-0.799937 -0.0185185 -2.90837e-20)
(-0.720256 -0.0224655 -6.22063e-20)
(-0.634106 -0.0266614 6.9946e-33)
(-0.543023 -0.0309993 3.4021e-20)
(-0.448781 -0.0353118 0)
(-0.353455 -0.0393281 0)
(-0.259523 -0.0425798 3.45897e-20)
(-0.169964 -0.0441807 -2.70621e-20)
(-0.0892037 -0.0441006 4.67799e-20)
(-0.0301267 -0.0421305 -7.75058e-34)
(0.0252199 0.0202801 -4.58702e-20)
(-0.0031231 -0.0358843 -2.4674e-20)
(-0.0149341 0.0145217 -1.96534e-20)
(-0.0461747 0.0417729 -2.10388e-21)
(-0.0873084 0.0553257 -5.41877e-22)
(-0.136518 0.0585458 -1.76733e-21)
(-0.195728 0.0591018 0)
(-0.261481 0.0579271 -6.60749e-21)
(-0.332127 0.0554279 -7.65438e-21)
(-0.405958 0.0519451 3.70451e-21)
(-0.481493 0.047789 6.84058e-20)
(-0.557375 0.0432471 1.99007e-19)
(-0.6324 0.0385599 -1.63021e-20)
(-0.705501 0.0339071 -1.40317e-19)
(-0.775723 0.0294076 1.57131e-19)
(-0.842176 0.0251303 1.42094e-19)
(-0.903992 0.0211093 0)
(-0.960286 0.0173564 0)
(-1.01014 0.0138638 0)
(-1.05265 0.0106258 0)
(-1.08633 0.00762456 0)
(-1.10881 0.00465419 0)
(-1.11746 0.00152874 -1.2586e-19)
(-1.11316 -0.00178375 -2.08453e-19)
(-1.09762 -0.00546502 -1.16534e-19)
(-1.07168 -0.00974424 -1.45736e-19)
(-1.03575 -0.0147713 0)
(-0.990143 -0.0206166 0)
(-0.935246 -0.0273065 3.56651e-20)
(-0.871679 -0.0348038 3.84539e-20)
(-0.800319 -0.0430129 1.35887e-19)
(-0.722307 -0.0517808 9.58684e-20)
(-0.639021 -0.0608895 -4.29389e-20)
(-0.552051 -0.0700307 0)
(-0.463196 -0.0787593 0)
(-0.374481 -0.08641 -6.16001e-20)
(-0.288194 -0.0919458 -1.06796e-20)
(-0.206874 -0.0936928 -1.84047e-20)
(-0.133961 -0.0890387 1.70392e-20)
(-0.0740195 -0.0721459 -1.97788e-22)
(-0.0330554 -0.0201707 -4.57476e-20)
(-0.0251399 -0.0113468 0)
(-0.0480509 0.0440611 -7.41124e-21)
(-0.0845366 0.0749728 -4.61922e-21)
(-0.125642 0.0936618 -5.43862e-21)
(-0.173947 0.101369 -3.16773e-20)
(-0.230141 0.103603 -2.79518e-20)
(-0.292184 0.102051 -9.16102e-20)
(-0.358708 0.0978009 -1.02639e-19)
(-0.428194 0.0916556 0)
(-0.499303 0.0842721 7.03245e-20)
(-0.570814 0.0761993 2.08335e-19)
(-0.641635 0.0678728 3.69864e-21)
(-0.710779 0.0596087 -1.2584e-19)
(-0.77733 0.0516121 1.43075e-19)
(-0.840405 0.044001 1.29399e-19)
(-0.899114 0.0368334 0)
(-0.952533 0.0301289 0)
(-0.999697 0.0238743 0)
(-1.03963 0.0180426 0)
(-1.07083 0.0125918 0)
(-1.09087 0.0071867 0)
(-1.09733 0.00155624 0)
(-1.0913 -0.00440966 1.68955e-19)
(-1.0746 -0.0110088 1.26889e-19)
(-1.048 -0.0185494 -1.31941e-19)
(-1.01195 -0.0273018 0)
(-0.966789 -0.0374224 0)
(-0.912951 -0.0489431 0)
(-0.851098 -0.0617829 -4.33576e-20)
(-0.782151 -0.0757582 7.93639e-20)
(-0.707277 -0.0905876 1.26085e-19)
(-0.627857 -0.105881 0)
(-0.545439 -0.121104 0)
(-0.461702 -0.135512 0)
(-0.378435 -0.148042 -5.76701e-20)
(-0.297498 -0.157138 -7.74541e-21)
(-0.220775 -0.16051 8.61669e-21)
(-0.150404 -0.154892 -3.69264e-20)
(-0.0858676 -0.135251 -3.19369e-20)
(-0.0370862 -0.0887886 0)
(-0.0334261 0.0428463 -1.53673e-20)
(-0.0629192 0.0877034 -2.06684e-20)
(-0.104053 0.117254 7.62384e-22)
(-0.147539 0.136258 1.2205e-21)
(-0.195652 0.145471 -3.18949e-20)
(-0.249157 0.148073 -1.73319e-21)
(-0.307258 0.145639 -5.81973e-20)
(-0.369151 0.139484 -6.60999e-20)
(-0.433785 0.130685 2.74791e-20)
(-0.500124 0.120167 2.30957e-20)
(-0.56715 0.108698 4.93865e-20)
(-0.633893 0.0968742 2.40303e-20)
(-0.699413 0.0851251 -2.51994e-20)
(-0.762785 0.0737293 -2.37138e-20)
(-0.823075 0.062849 -1.60968e-19)
(-0.879324 0.0525683 -1.21283e-19)
(-0.930533 0.0429214 1.99563e-20)
(-0.975661 0.0338988 0)
(-1.01366 0.0254587 0)
(-1.04299 0.0175259 0)
(-1.06119 0.0096386 0)
(-1.066 0.0014278 0)
(-1.05865 -0.00717862 3.36124e-19)
(-1.04112 -0.0166607 4.65069e-19)
(-1.01415 -0.0274919 0)
(-0.978225 -0.0400495 0)
(-0.933718 -0.0545385 -2.71901e-19)
(-0.88112 -0.0709874 -3.02024e-19)
(-0.821136 -0.0892586 -4.8496e-20)
(-0.754719 -0.109064 -4.98322e-20)
(-0.683052 -0.129975 0)
(-0.607498 -0.151418 -5.56759e-20)
(-0.529532 -0.172641 1.41594e-33)
(-0.450676 -0.192643 1.07106e-19)
(-0.372428 -0.21008 5.1715e-20)
(-0.296176 -0.22311 4.50812e-20)
(-0.223104 -0.22922 4.38928e-20)
(-0.154483 -0.224947 -4.48476e-20)
(-0.0880432 -0.205774 -4.05673e-20)
(-0.0361507 -0.163307 -1.50801e-20)
(-0.0325109 0.102617 -1.61918e-20)
(-0.0664504 0.142174 -2.79452e-20)
(-0.111035 0.167892 1.21491e-20)
(-0.156465 0.184837 6.82656e-21)
(-0.204523 0.19325 -4.78586e-34)
(-0.255975 0.194875 5.32077e-20)
(-0.310759 0.190939 -2.92078e-20)
(-0.368578 0.182676 -6.88047e-20)
(-0.428851 0.171232 -3.63559e-21)
(-0.490876 0.157667 -3.62366e-20)
(-0.55385 0.142883 -3.66942e-20)
(-0.616917 0.127597 0)
(-0.679167 0.112331 -3.57555e-20)
(-0.73965 0.0974359 -3.4727e-20)
(-0.797371 0.0831259 -1.76141e-19)
(-0.851298 0.0695248 -1.25627e-19)
(-0.900356 0.0566951 3.11937e-20)
(-0.943433 0.0446443 0)
(-0.97942 0.0333225 0)
(-1.00673 0.0226226 0)
(-1.02291 0.0119526 0)
(-1.02592 0.000860237 -5.82058e-20)
(-1.01713 -0.0106983 8.06946e-20)
(-0.998691 -0.0233385 2.50088e-19)
(-0.971324 -0.0377406 0)
(-0.93557 -0.0543816 0)
(-0.891838 -0.0735123 -2.92299e-19)
(-0.840655 -0.0951424 -3.23766e-19)
(-0.78275 -0.119058 0)
(-0.719089 -0.144844 2.68245e-19)
(-0.650845 -0.171914 2.70731e-19)
(-0.579337 -0.199509 -6.30945e-20)
(-0.505945 -0.226689 -1.34288e-33)
(-0.432015 -0.25228 1.20601e-19)
(-0.358771 -0.274802 5.83822e-20)
(-0.287208 -0.292363 -1.10805e-19)
(-0.217989 -0.302518 -1.0021e-19)
(-0.151973 -0.301919 0)
(-0.0863608 -0.285957 1.19532e-20)
(-0.0343766 -0.245652 -1.50029e-20)
(-0.0311312 0.172482 -1.63471e-20)
(-0.065837 0.205216 -3.23636e-20)
(-0.111015 0.225843 1.25305e-21)
(-0.156614 0.239102 -1.10946e-20)
(-0.203969 0.244911 -7.10573e-20)
(-0.253529 0.244245 -4.79061e-20)
(-0.305494 0.238016 -3.04803e-20)
(-0.359843 0.227265 -1.22689e-19)
(-0.416324 0.213062 -9.58704e-20)
(-0.474504 0.196462 0)
(-0.533774 0.178411 0)
(-0.593384 0.159683 0)
(-0.652466 0.14087 0)
(-0.710053 0.122383 1.96806e-20)
(-0.765107 0.104498 1.49378e-20)
(-0.816537 0.0873897 0)
(-0.863207 0.0711638 0)
(-0.903946 0.0558569 0)
(-0.937589 0.0414192 0)
(-0.962527 0.0277098 0)
(-0.976352 0.014006 0)
(-0.977242 -0.000198909 -6.44043e-20)
(-0.966952 -0.01489 -1.10471e-19)
(-0.947579 -0.030852 0)
(-0.919918 -0.0489835 -2.87467e-19)
(-0.884541 -0.0698618 -3.42745e-19)
(-0.841883 -0.0937809 -1.6058e-19)
(-0.792482 -0.120725 -1.76834e-19)
(-0.737061 -0.150393 0)
(-0.676563 -0.182234 2.88916e-19)
(-0.612114 -0.215493 2.89424e-19)
(-0.544957 -0.249236 8.67756e-20)
(-0.476349 -0.282365 2.83701e-33)
(-0.40746 -0.313596 -8.17187e-20)
(-0.339281 -0.341418 7.90025e-20)
(-0.272535 -0.364013 -4.383e-20)
(-0.207583 -0.379092 -1.47222e-19)
(-0.145175 -0.383413 -2.70798e-20)
(-0.0824381 -0.371793 0)
(-0.0321052 -0.332733 0)
(-0.0290209 0.246777 -1.63557e-20)
(-0.0628117 0.273486 -7.59863e-20)
(-0.10668 0.288997 -5.0976e-20)
(-0.150953 0.297948 0)
(-0.196759 0.300196 -8.21306e-20)
(-0.244203 0.296369 -9.18595e-20)
(-0.293517 0.287207 -5.37704e-20)
(-0.344752 0.273584 -1.1235e-19)
(-0.397826 0.25644 -1.21366e-19)
(-0.452471 0.236744 -1.33169e-20)
(-0.508222 0.215405 5.63463e-20)
(-0.564427 0.193206 1.4601e-19)
(-0.620265 0.170771 1.48567e-19)
(-0.674778 0.148567 1.30678e-20)
(-0.726906 0.126932 1.5671e-19)
(-0.775521 0.106103 1.47032e-19)
(-0.819445 0.0862421 0)
(-0.857467 0.0674267 0)
(-0.888381 0.049616 7.11054e-20)
(-0.91058 0.0326329 7.5413e-20)
(-0.921737 0.0156245 -7.95681e-20)
(-0.920319 -0.00191841 -1.52379e-19)
(-0.908544 -0.0199188 1.0135e-19)
(-0.888374 -0.039357 3.98987e-19)
(-0.860682 -0.0613514 -2.29531e-19)
(-0.826052 -0.0865882 -2.82625e-19)
(-0.784923 -0.115405 -7.29229e-20)
(-0.737808 -0.147758 -3.02835e-19)
(-0.685385 -0.18325 -4.47077e-19)
(-0.628535 -0.221187 -3.44685e-19)
(-0.568299 -0.260641 1.08549e-19)
(-0.505814 -0.300515 2.01278e-19)
(-0.442202 -0.339578 1.0189e-19)
(-0.378477 -0.376486 1.07137e-19)
(-0.315458 -0.40976 2.74111e-19)
(-0.253719 -0.437705 1.75394e-19)
(-0.193485 -0.458207 -3.81853e-20)
(-0.135518 -0.468083 -2.77555e-20)
(-0.0769855 -0.461386 0)
(-0.0296231 -0.423228 0)
(-0.0263849 0.323407 -1.62147e-20)
(-0.0583104 0.345035 -6.93673e-20)
(-0.0996583 0.355676 -4.62342e-20)
(-0.141532 0.360197 0)
(-0.184997 0.358504 -5.6413e-20)
(-0.229907 0.351066 -6.14128e-20)
(-0.276449 0.338551 6.32394e-21)
(-0.324644 0.321735 6.88873e-21)
(-0.374452 0.301438 -7.15591e-20)
(-0.425678 0.278519 -1.86547e-20)
(-0.477942 0.253808 1.93457e-19)
(-0.530667 0.228054 2.11591e-19)
(-0.583081 0.201888 7.80638e-20)
(-0.634254 0.17582 0)
(-0.683126 0.150248 1.78879e-19)
(-0.728557 0.125479 1.78481e-19)
(-0.769349 0.101742 0)
(-0.804275 0.0791662 0)
(-0.832103 0.0577283 8.81146e-20)
(-0.851258 0.0372142 9.36618e-20)
(-0.85955 0.0166477 -9.80212e-20)
(-0.85579 -0.00441762 -1.79404e-19)
(-0.842654 -0.0258432 3.7346e-19)
(-0.821956 -0.0488416 8.10647e-19)
(-0.794619 -0.0747516 1.08418e-19)
(-0.761209 -0.10438 1.14946e-19)
(-0.722142 -0.138116 -4.70526e-19)
(-0.677873 -0.175887 -7.62596e-19)
(-0.628999 -0.217203 -4.89706e-19)
(-0.576297 -0.261222 -3.71639e-19)
(-0.520695 -0.306847 1.18503e-19)
(-0.4632 -0.352821 1.14059e-19)
(-0.404803 -0.397803 -1.13463e-20)
(-0.346388 -0.440407 -2.16439e-20)
(-0.288665 -0.479196 8.92541e-20)
(-0.232142 -0.512599 -1.0073e-20)
(-0.177005 -0.538654 -1.45233e-19)
(-0.124055 -0.554231 -2.75922e-20)
(-0.0705439 -0.552695 0)
(-0.0269604 -0.515491 0)
(-0.0235513 0.400719 -1.19816e-19)
(-0.0529737 0.418208 -9.1554e-20)
(-0.0910502 0.42437 0)
(-0.129781 0.424638 0)
(-0.170248 0.418999 -6.33735e-20)
(-0.212146 0.407835 8.26356e-20)
(-0.255617 0.391785 1.56194e-19)
(-0.300621 0.371575 -8.39187e-21)
(-0.34709 0.347946 0)
(-0.394838 0.321656 -1.03648e-19)
(-0.443519 0.293449 3.31572e-20)
(-0.492599 0.26402 4.20352e-20)
(-0.541354 0.23399 -1.10017e-19)
(-0.588886 0.203898 0)
(-0.634161 0.174198 0)
(-0.676045 0.145274 0)
(-0.713348 0.117428 0)
(-0.744844 0.0908505 -1.76561e-19)
(-0.769304 0.065546 -1.24486e-19)
(-0.785216 0.0412637 0)
(-0.790574 0.0169178 0)
(-0.784566 -0.00780186 0)
(-0.770333 -0.0326983 2.95014e-19)
(-0.749469 -0.0592613 4.01901e-19)
(-0.722933 -0.0890528 0)
(-0.691252 -0.123013 0)
(-0.654795 -0.161593 -1.08506e-18)
(-0.613929 -0.204707 -1.1645e-18)
(-0.569137 -0.251776 0)
(-0.521062 -0.301812 3.40793e-19)
(-0.470492 -0.353552 3.30355e-19)
(-0.418298 -0.405583 0)
(-0.365344 -0.456454 1.31156e-20)
(-0.312411 -0.504733 -1.06779e-19)
(-0.260141 -0.549009 -1.13352e-19)
(-0.20902 -0.587804 -1.09332e-19)
(-0.159237 -0.619278 -1.46617e-19)
(-0.111616 -0.640397 2.166e-20)
(-0.063545 -0.644035 1.48428e-19)
(-0.0241977 -0.607954 1.60404e-19)
(-0.0206787 0.477206 -1.27061e-19)
(-0.0472068 0.49148 -1.20174e-19)
(-0.0815731 0.493657 -1.65618e-20)
(-0.11668 0.490028 0)
(-0.153648 0.480677 0)
(-0.192091 0.465916 1.63462e-19)
(-0.232123 0.446356 4.97527e-20)
(-0.27365 0.422697 -1.39169e-19)
(-0.316561 0.395634 1.15508e-19)
(-0.360642 0.365851 1.17701e-20)
(-0.405547 0.33402 3.40094e-20)
(-0.450763 0.300784 1.6078e-19)
(-0.4956 0.266749 0)
(-0.5392 0.232472 0)
(-0.580563 0.198466 0)
(-0.618587 0.165187 0)
(-0.652106 0.133021 0)
(-0.679926 0.102226 -2.02687e-19)
(-0.700842 0.0728453 -1.44545e-19)
(-0.713438 0.0445946 0)
(-0.715936 0.0163005 0)
(-0.707916 -0.0121289 0)
(-0.692949 -0.0404559 0)
(-0.672329 -0.0704982 0)
(-0.647045 -0.104036 0)
(-0.617575 -0.142159 0)
(-0.584228 -0.1854 -4.74772e-19)
(-0.547265 -0.233678 -5.04304e-19)
(-0.507028 -0.286341 0)
(-0.464002 -0.342267 3.60983e-19)
(-0.418821 -0.400024 1.68364e-19)
(-0.372209 -0.45804 -1.67704e-19)
(-0.324915 -0.514741 -1.48203e-20)
(-0.277635 -0.568629 -1.61225e-19)
(-0.23096 -0.618288 -1.38895e-19)
(-0.185368 -0.662289 0)
(-0.141063 -0.698901 0)
(-0.0988626 -0.725224 4.56498e-20)
(-0.0563567 -0.733894 1.42656e-19)
(-0.0214343 -0.699147 1.53418e-19)
(-0.017855 0.551495 -1.49249e-20)
(-0.0412741 0.563444 -4.0129e-20)
(-0.0717042 0.562181 -7.03776e-20)
(-0.102902 0.555109 -5.29697e-20)
(-0.136025 0.542417 -5.20332e-20)
(-0.170653 0.524348 -5.92636e-20)
(-0.20689 0.501466 -2.36116e-19)
(-0.244613 0.474442 -2.5991e-19)
(-0.283674 0.443944 1.2298e-19)
(-0.323827 0.410611 1.33652e-19)
(-0.364711 0.375064 1.67887e-19)
(-0.40582 0.33791 -1.8221e-20)
(-0.44649 0.299742 -1.97325e-19)
(-0.485902 0.261142 0)
(-0.5231 0.222674 -1.27676e-19)
(-0.557029 0.184874 -3.20524e-19)
(-0.58657 0.148213 -2.04855e-19)
(-0.610582 0.113027 -2.07695e-19)
(-0.627913 0.0794077 -2.1346e-19)
(-0.637279 0.0470435 0)
(-0.637153 0.0147039 0)
(-0.627507 -0.0174031 -2.52817e-19)
(-0.612231 -0.0490336 -4.25581e-19)
(-0.592265 -0.0823818 0)
(-0.568633 -0.119429 0)
(-0.541766 -0.16143 0)
(-0.511921 -0.209024 0)
(-0.479248 -0.26217 0)
(-0.443934 -0.320172 -2.23494e-19)
(-0.406288 -0.381782 -2.12994e-19)
(-0.366772 -0.445403 -1.81452e-19)
(-0.325965 -0.509289 -1.69151e-19)
(-0.2845 -0.571725 -1.56962e-19)
(-0.242997 -0.631115 -2.91361e-19)
(-0.202003 -0.686002 -1.36028e-19)
(-0.161983 -0.734973 0)
(-0.12315 -0.776382 0)
(-0.0862975 -0.807505 0)
(-0.0492657 -0.820967 0)
(-0.0187544 -0.787772 0)
(-0.015134 0.622276 -1.7028e-19)
(-0.035355 0.632763 -1.88034e-20)
(-0.0617706 0.62862 4.76551e-20)
(-0.088926 0.618603 -5.3983e-20)
(-0.117991 0.603012 -1.05564e-19)
(-0.148547 0.58202 -1.21178e-19)
(-0.1807 0.556117 -2.43481e-19)
(-0.21432 0.525935 -2.70312e-19)
(-0.249241 0.492112 0)
(-0.285194 0.455262 0)
(-0.321809 0.415977 0)
(-0.358584 0.374845 -2.09636e-19)
(-0.394877 0.332464 -2.15861e-19)
(-0.429909 0.289443 0)
(-0.462776 0.246405 -1.42144e-19)
(-0.492483 0.203968 -3.54664e-19)
(-0.51798 0.162692 -2.26357e-19)
(-0.538198 0.123003 -2.31278e-19)
(-0.552075 0.0850489 -2.39815e-19)
(-0.558485 0.0485021 0)
(-0.556156 0.0121094 0)
(-0.545419 -0.0235561 -2.92602e-19)
(-0.530294 -0.0582937 -4.56305e-20)
(-0.511343 -0.0947042 5.70544e-19)
(-0.489644 -0.134934 0)
(-0.465618 -0.18041 0)
(-0.439498 -0.231917 -2.73822e-19)
(-0.411338 -0.289502 -2.84248e-19)
(-0.381163 -0.352464 -2.27038e-19)
(-0.349095 -0.419457 -2.13849e-19)
(-0.315409 -0.488716 0)
(-0.28053 -0.558306 -1.48678e-19)
(-0.244978 -0.62634 -1.33305e-19)
(-0.209292 -0.691096 0)
(-0.173972 -0.75104 0)
(-0.139462 -0.804745 0)
(-0.105981 -0.850631 0)
(-0.0742789 -0.886161 -1.05795e-19)
(-0.0424813 -0.904135 3.46652e-21)
(-0.0162206 -0.87272 1.83991e-19)
(-0.0125501 0.688267 -1.79396e-19)
(-0.0295754 0.698131 -3.64487e-20)
(-0.052004 0.691668 -1.05515e-20)
(-0.0750983 0.679213 -2.79789e-34)
(-0.100013 0.661196 6.62667e-20)
(-0.126352 0.637716 -2.90166e-19)
(-0.154228 0.609174 -2.96778e-19)
(-0.183521 0.576136 -2.07105e-19)
(-0.214067 0.539206 -1.74944e-19)
(-0.245595 0.498976 8.06582e-20)
(-0.277736 0.456025 8.72657e-20)
(-0.310001 0.410943 2.29476e-19)
(-0.341777 0.364342 2.47176e-19)
(-0.372328 0.316874 0)
(-0.400812 0.269228 -1.57442e-19)
(-0.426305 0.222109 -1.49195e-19)
(-0.447843 0.176179 2.97293e-19)
(-0.46446 0.131957 3.06172e-19)
(-0.475207 0.0896617 0)
(-0.479152 0.0489611 0)
(-0.475239 0.00860796 0)
(-0.464086 -0.0304332 0)
(-0.449554 -0.0680575 4.95235e-19)
(-0.431884 -0.107259 6.30177e-19)
(-0.412236 -0.150282 0)
(-0.391083 -0.198728 0)
(-0.368695 -0.253563 -8.60808e-19)
(-0.34506 -0.314998 -8.82323e-19)
(-0.320056 -0.382395 0)
(-0.293598 -0.454352 0)
(-0.265762 -0.528937 0)
(-0.236806 -0.604006 6.53032e-20)
(-0.207126 -0.677468 6.24325e-20)
(-0.177179 -0.747439 0)
(-0.147415 -0.812279 0)
(-0.118246 -0.870521 0)
(-0.0898935 -0.920626 1.43158e-19)
(-0.0630507 -0.960238 9.81851e-20)
(-0.0361466 -0.982458 6.8589e-21)
(-0.0138749 -0.953068 1.66152e-19)
(-0.010126 0.748202 -2.46441e-20)
(-0.0240267 0.758265 3.31006e-20)
(-0.0425745 0.750027 -4.8226e-20)
(-0.061681 0.735632 1.37001e-34)
(-0.0824549 0.715667 1.14467e-19)
(-0.10454 0.690162 -2.22072e-19)
(-0.128052 0.659413 -2.48072e-19)
(-0.152898 0.6239 -1.54956e-19)
(-0.178927 0.58418 -7.72444e-20)
(-0.205889 0.540818 1.89991e-19)
(-0.233434 0.494389 9.22754e-20)
(-0.261099 0.445491 1.03625e-19)
(-0.288313 0.394769 2.51062e-19)
(-0.314395 0.342928 1.4878e-19)
(-0.338572 0.290735 -4.20546e-34)
(-0.360007 0.238991 3.99359e-34)
(-0.377841 0.188469 3.11496e-19)
(-0.391231 0.139798 3.23442e-19)
(-0.399374 0.0932707 0)
(-0.401543 0.0485619 0)
(-0.39682 0.00443116 0)
(-0.386031 -0.037798 0)
(-0.372474 -0.0781317 5.53603e-19)
(-0.356241 -0.119886 6.86768e-19)
(-0.338591 -0.1653 -1.51083e-19)
(-0.320138 -0.216123 -1.78422e-19)
(-0.30126 -0.273557 -1.04584e-18)
(-0.28194 -0.338069 -8.93909e-19)
(-0.261927 -0.409199 1.44186e-19)
(-0.24093 -0.485553 0)
(-0.218801 -0.565051 0)
(-0.195612 -0.645315 1.96543e-19)
(-0.171627 -0.724007 1.76662e-19)
(-0.147212 -0.799045 0)
(-0.122764 -0.868653 0)
(-0.0986593 -0.931296 7.33478e-20)
(-0.0751193 -0.98545 2.36374e-19)
(-0.0527757 -1.02892 2.9208e-19)
(-0.0303567 -1.05517 1.48399e-19)
(-0.0117441 -1.02808 9.86288e-20)
(-0.00787679 0.800831 -2.23164e-20)
(-0.0187756 0.811903 3.10082e-20)
(-0.0336068 0.80242 1.16527e-19)
(-0.0488697 0.786564 6.04914e-35)
(-0.0655993 0.765119 1.24252e-34)
(-0.0834883 0.738061 7.13552e-20)
(-0.102657 0.705571 0)
(-0.123041 0.66803 0)
(-0.144522 0.625927 9.06308e-20)
(-0.166881 0.579794 1.01337e-19)
(-0.189809 0.530198 1.2445e-19)
(-0.212888 0.477753 -2.423e-19)
(-0.235604 0.423141 -2.70642e-19)
(-0.257344 0.367132 1.47303e-19)
(-0.27742 0.310581 1.88786e-19)
(-0.295098 0.254399 5.50128e-19)
(-0.309636 0.199481 3.85235e-19)
(-0.32033 0.146572 0)
(-0.326528 0.0960476 0)
(-0.327693 0.0475829 0)
(-0.322847 -3.00747e-05 0)
(-0.313366 -0.0452918 0)
(-0.301077 -0.0883203 6.09267e-19)
(-0.286372 -0.132488 3.62783e-19)
(-0.270585 -0.179932 -5.33701e-19)
(-0.254537 -0.2325 -5.46199e-19)
(-0.238777 -0.291668 -7.87707e-19)
(-0.223364 -0.358292 -2.95065e-19)
(-0.207971 -0.432241 1.33018e-19)
(-0.192106 -0.512249 0)
(-0.175381 -0.59613 0)
(-0.157659 -0.68124 0)
(-0.139054 -0.764949 -3.24879e-19)
(-0.11984 -0.844925 -2.74182e-19)
(-0.100354 -0.919219 0)
(-0.0809416 -0.986199 6.26798e-20)
(-0.0618217 -1.04433 9.23107e-20)
(-0.0435626 -1.09154 1.28275e-19)
(-0.0251746 -1.1217 1.25028e-19)
(-0.00984556 -1.09725 8.63748e-20)
(-0.00580975 0.84492 -1.97083e-20)
(-0.0138635 0.857799 -2.92981e-20)
(-0.0251817 0.847582 5.48636e-20)
(-0.0367968 0.830724 -9.62672e-35)
(-0.0496448 0.808256 -1.09246e-34)
(-0.0634737 0.780119 1.34411e-19)
(-0.0784056 0.746382 7.90964e-20)
(-0.0944104 0.707316 0)
(-0.111408 0.663326 0)
(-0.129228 0.6149 8.94833e-20)
(-0.147615 0.562585 2.15403e-19)
(-0.166219 0.507009 -1.39114e-19)
(-0.184596 0.448895 -2.86635e-19)
(-0.202222 0.389082 0)
(-0.218509 0.328521 0)
(-0.232836 0.268243 3.55409e-19)
(-0.244594 0.209275 3.75812e-19)
(-0.253222 0.152484 0)
(-0.258216 0.0983141 0)
(-0.259167 0.0464255 0)
(-0.254932 -0.00428842 0)
(-0.247185 -0.0525152 0)
(-0.236391 -0.0984098 0)
(-0.223337 -0.144967 -3.55797e-19)
(-0.209358 -0.194172 -3.3981e-19)
(-0.195465 -0.247879 -3.24694e-19)
(-0.182406 -0.307845 -3.06932e-19)
(-0.170396 -0.375437 0)
(-0.159115 -0.451066 -1.4334e-19)
(-0.147917 -0.533786 -2.5671e-19)
(-0.136164 -0.621384 -1.13586e-19)
(-0.123488 -0.710933 -1.28031e-19)
(-0.109841 -0.799438 -4.10995e-19)
(-0.0953954 -0.884256 -2.512e-19)
(-0.080431 -0.963213 -6.89617e-20)
(-0.065262 -1.03455 -1.24969e-19)
(-0.0501096 -1.09669 -5.84268e-20)
(-0.035481 -1.14764 4.08982e-20)
(-0.0206401 -1.18169 -7.2746e-20)
(-0.00819079 -1.16028 -7.19477e-20)
(-0.00387966 0.879225 -9.25674e-20)
(-0.00931559 0.894708 -7.8448e-20)
(-0.0173225 0.884266 0)
(-0.025514 0.86684 0)
(-0.0346815 0.843791 0)
(-0.0446339 0.815047 5.98314e-20)
(-0.0554932 0.780579 6.73584e-20)
(-0.0672644 0.74054 0)
(-0.0799113 0.695244 0)
(-0.0933223 0.645114 9.12068e-20)
(-0.10731 0.590672 3.30982e-19)
(-0.121606 0.532547 2.52497e-19)
(-0.135859 0.471497 -1.53494e-19)
(-0.149645 0.408428 -1.69028e-19)
(-0.162488 0.344391 0)
(-0.173898 0.280543 0)
(-0.183398 0.218044 0)
(-0.190565 0.157877 0)
(-0.195016 0.100525 0)
(-0.196363 0.0455723 0)
(-0.193345 -0.00802375 0)
(-0.187116 -0.059243 0)
(-0.178078 -0.108116 7.07655e-19)
(-0.166929 -0.157071 8.1258e-19)
(-0.154954 -0.207856 0)
(-0.143213 -0.262209 0)
(-0.132605 -0.322081 1.59773e-19)
(-0.123548 -0.389413 1.46722e-19)
(-0.115846 -0.465391 1.24563e-20)
(-0.108789 -0.549669 2.63453e-19)
(-0.101514 -0.640176 1.30461e-19)
(-0.0934035 -0.733694 -3.23518e-19)
(-0.084231 -0.826786 -2.77878e-19)
(-0.0740632 -0.916401 -6.71837e-20)
(-0.0631262 -1.00008 -5.37048e-20)
(-0.0517083 -1.07589 -9.65941e-20)
(-0.0400358 -1.14217 4.67273e-21)
(-0.0285625 -1.19699 1.30148e-19)
(-0.0167716 -1.23502 -1.09422e-20)
(-0.00678619 -1.21717 -5.57933e-20)
(-0.00202473 0.9024 7.41036e-20)
(-0.00516097 0.921289 1.67018e-19)
(-0.00998933 0.911133 9.96264e-20)
(-0.014996 0.893567 0)
(-0.0206834 0.870367 0)
(-0.0269504 0.841491 0)
(-0.0339131 0.80683 0)
(-0.0416098 0.766427 0)
(-0.0500502 0.720493 0)
(-0.0591864 0.669378 9.33251e-20)
(-0.0689105 0.613559 3.42633e-19)
(-0.0790474 0.553651 -1.04359e-19)
(-0.0893549 0.490429 -5.38942e-19)
(-0.0995188 0.424846 -1.38883e-19)
(-0.109189 0.358067 0)
(-0.118006 0.291358 0)
(-0.125619 0.22601 0)
(-0.131709 0.163092 0)
(-0.135964 0.103078 0)
(-0.137903 0.045372 0)
(-0.136111 -0.0110615 0)
(-0.13143 -0.0652054 -6.11188e-19)
(-0.124517 -0.116934 6.88271e-19)
(-0.115752 -0.168191 1.71954e-18)
(-0.106273 -0.220408 0)
(-0.0970332 -0.275072 0)
(-0.0889502 -0.334153 1.23652e-19)
(-0.0826185 -0.40008 1.12525e-19)
(-0.0780668 -0.474981 1.00549e-19)
(-0.074665 -0.559477 4.21703e-19)
(-0.0713938 -0.651944 2.23613e-19)
(-0.0673831 -0.74892 -2.82841e-20)
(-0.0622114 -0.846422 5.92192e-20)
(-0.0558339 -0.940878 1.85468e-20)
(-0.048427 -1.02944 0)
(-0.0402629 -1.10995 0)
(-0.031579 -1.18064 3.5178e-20)
(-0.0227886 -1.2396 8.15064e-20)
(-0.0135578 -1.28187 2.70885e-20)
(-0.00563228 -1.26823 0)
(-0.000276049 0.913013 9.31443e-20)
(-0.00130939 0.936143 5.40702e-20)
(-0.00311481 0.92673 -7.09015e-21)
(-0.00508358 0.909425 7.257e-20)
(-0.00745168 0.886486 7.63173e-20)
(-0.0101721 0.857942 0)
(-0.0133598 0.823627 -4.19936e-20)
(-0.0170824 0.783488 -5.12619e-20)
(-0.0213949 0.737634 0)
(-0.0263164 0.686334 9.78474e-20)
(-0.0318257 0.630006 1.13363e-19)
(-0.0378549 0.569236 -2.4651e-19)
(-0.0442872 0.504798 -2.78144e-19)
(-0.0508859 0.437682 0)
(-0.057424 0.369124 0)
(-0.0637183 0.300478 0)
(-0.0695246 0.233122 0)
(-0.0746052 0.168176 0)
(-0.078701 0.10603 0)
(-0.0812093 0.0458283 0)
(-0.0806085 -0.013279 0)
(-0.0776791 -0.069933 -7.12876e-19)
(-0.0734054 -0.124079 -9.13228e-20)
(-0.0676617 -0.177311 9.5543e-19)
(-0.061382 -0.23072 0)
(-0.0552803 -0.285465 0)
(-0.0501442 -0.343323 0)
(-0.0466314 -0.406959 -1.72195e-19)
(-0.0450227 -0.479417 -1.54275e-19)
(-0.0449312 -0.562658 0)
(-0.0453053 -0.656004 0)
(-0.0450347 -0.755908 8.9669e-20)
(-0.0434827 -0.857742 1.50706e-19)
(-0.0404824 -0.957247 5.9443e-20)
(-0.0361663 -1.05105 0)
(-0.0308044 -1.13668 0)
(-0.0246547 -1.21223 -1.31872e-20)
(-0.0181084 -1.27577 3.53583e-21)
(-0.0109773 -1.32271 -1.32764e-20)
(-0.00473161 -1.31416 0)
(0.00109949 0.909239 -4.4174e-21)
(0.00243504 0.937003 -5.01899e-20)
(0.00340249 0.928935 -3.29975e-20)
(0.00434183 0.912328 3.09335e-20)
(0.00520076 0.890068 3.16439e-20)
(0.00593983 0.862328 0)
(0.00647636 0.828939 -4.26063e-20)
(0.00672302 0.789777 -5.29711e-20)
(0.00658933 0.744862 0)
(0.0059975 0.694378 0)
(0.00488714 0.638671 0)
(0.00322244 0.578266 0)
(0.000996193 0.513841 0)
(-0.00172905 0.446164 0)
(-0.00487104 0.376973 0)
(-0.00837581 0.307507 0)
(-0.0121252 0.239162 0)
(-0.0159671 0.173071 0)
(-0.0197306 0.109513 0)
(-0.0227521 0.0472386 0)
(-0.0236399 -0.0141412 0)
(-0.0230426 -0.0725351 0)
(-0.0220758 -0.128328 0)
(-0.0200935 -0.18292 0)
(-0.0178064 -0.2371 3.59351e-20)
(-0.0156357 -0.291708 3.05173e-20)
(-0.014121 -0.348182 0)
(-0.0138406 -0.409073 -4.55489e-20)
(-0.0152638 -0.478021 -4.38063e-20)
(-0.0183653 -0.558497 -2.3094e-20)
(-0.0222526 -0.651472 -2.13756e-20)
(-0.0256179 -0.753693 1.90361e-20)
(-0.027546 -0.859861 1.64842e-20)
(-0.0277049 -0.964814 0)
(-0.026185 -1.06443 0)
(-0.0232742 -1.15582 0)
(-0.0192686 -1.23687 -2.21675e-20)
(-0.0145624 -1.30563 -5.12676e-22)
(-0.00907813 -1.35789 -1.56041e-20)
(-0.00411234 -1.35557 0)
(0.00237431 0.890501 3.39178e-22)
(0.0057799 0.922618 -4.17898e-21)
(0.00927781 0.916324 0)
(0.0129355 0.90071 0)
(0.0167529 0.87938 0)
(0.0207132 0.852718 0)
(0.0247474 0.820598 0)
(0.0287658 0.782872 0)
(0.0326608 0.739499 0)
(0.0363158 0.690595 9.52835e-20)
(0.0396102 0.636443 1.12537e-19)
(0.0424234 0.577509 0)
(0.0446399 0.514444 0)
(0.0461172 0.448114 0)
(0.0467594 0.379921 0)
(0.0465477 0.311223 0)
(0.0454625 0.243393 0)
(0.0435767 0.177499 0)
(0.0409954 0.113702 0)
(0.038339 0.0504974 0)
(0.0363405 -0.011898 0)
(0.0343868 -0.0711503 0)
(0.0318095 -0.12769 1.1031e-18)
(0.0294734 -0.182763 1.16379e-18)
(0.0270586 -0.23705 -7.88357e-20)
(0.0244665 -0.291197 -6.91754e-20)
(0.0214946 -0.346278 0)
(0.0177999 -0.404428 0)
(0.0129396 -0.469297 0)
(0.00669399 -0.545572 3.5934e-20)
(-0.000583013 -0.636855 2.67421e-20)
(-0.00768008 -0.740719 -1.92925e-20)
(-0.0132438 -0.85126 -1.41754e-20)
(-0.0166107 -0.962255 0)
(-0.0178091 -1.06851 0)
(-0.017172 -1.16653 0)
(-0.015067 -1.25397 -1.08172e-20)
(-0.0119222 -1.32887 2.86516e-21)
(-0.00771763 -1.38738 -1.16022e-20)
(-0.00369397 -1.39282 0)
(0.00354361 0.860388 2.68286e-21)
(0.00874101 0.896255 -7.88494e-22)
(0.0146866 0.891877 0)
(0.0207786 0.877399 0)
(0.0273049 0.857122 0)
(0.0342084 0.831655 -3.37043e-20)
(0.0414404 0.800953 -3.84099e-20)
(0.0489172 0.764877 0)
(0.056524 0.723361 0)
(0.0641202 0.676474 1.63683e-19)
(0.0715425 0.62445 1.92093e-19)
(0.0786047 0.567704 0)
(0.0851031 0.506848 0)
(0.0907905 0.442732 0)
(0.0954368 0.376593 0)
(0.0988781 0.309749 0)
(0.10097 0.243499 0)
(0.101682 0.178804 0)
(0.10103 0.115727 0)
(0.0994017 0.052873 0)
(0.0968171 -0.00875637 0)
(0.092701 -0.0669593 0)
(0.0868471 -0.122509 9.00566e-19)
(0.0801915 -0.176569 9.75989e-19)
(0.0728619 -0.229818 0)
(0.0650972 -0.282822 6.47036e-20)
(0.057045 -0.33642 5.73247e-20)
(0.04867 -0.392344 0)
(0.0397302 -0.453916 0)
(0.0299631 -0.526146 0)
(0.0194211 -0.613769 0)
(0.00902798 -0.717304 0)
(0.000144916 -0.831983 0)
(-0.00635086 -0.94949 0)
(-0.0102362 -1.06297 0)
(-0.0117718 -1.16821 0)
(-0.0114367 -1.26264 0)
(-0.00967418 -1.34429 7.53932e-21)
(-0.00671046 -1.40973 1.51692e-21)
(-0.00328868 -1.42414 1.12213e-20)
(0.00467576 0.821954 2.0163e-21)
(0.0116596 0.861006 4.85004e-22)
(0.0199601 0.85867 0)
(0.0284027 0.84547 0)
(0.0375254 0.82634 2.1914e-20)
(0.0472353 0.802136 -2.89194e-20)
(0.0575102 0.772919 -8.98355e-20)
(0.0682741 0.738587 -7.56711e-21)
(0.0794109 0.699074 3.5212e-20)
(0.090765 0.65443 7.45127e-20)
(0.102141 0.604855 8.68401e-20)
(0.113304 0.550727 0)
(0.123978 0.492626 0)
(0.133834 0.431357 0)
(0.142531 0.368021 0)
(0.149763 0.303841 0)
(0.155249 0.240007 0)
(0.158803 0.177373 0)
(0.160259 0.115961 0)
(0.159601 0.0546386 0)
(0.156276 -0.00506505 0)
(0.150067 -0.0609896 -9.0887e-19)
(0.141088 -0.114176 -1.2797e-18)
(0.130333 -0.165935 0)
(0.118269 -0.217036 0)
(0.105411 -0.268062 8.15257e-21)
(0.0921944 -0.319734 -5.81205e-19)
(0.0788653 -0.37347 -5.34106e-19)
(0.0654076 -0.432215 -5.68165e-20)
(0.0516276 -0.50106 -9.98658e-20)
(0.0375673 -0.585967 -4.20125e-20)
(0.0240518 -0.689226 -3.38171e-20)
(0.0123023 -0.806327 -8.22045e-20)
(0.00315252 -0.929003 -6.508e-20)
(-0.00319219 -1.04996 -3.41702e-20)
(-0.00682163 -1.16256 -2.85672e-20)
(-0.00816407 -1.2641 -1.25988e-20)
(-0.00767265 -1.35261 -2.64366e-21)
(-0.00582952 -1.42514 -3.13871e-21)
(-0.00302834 -1.44914 1.68243e-20)
(0.00579855 0.777461 2.36453e-21)
(0.0145857 0.819197 8.48339e-22)
(0.0252279 0.819038 0)
(0.0359953 0.807263 0)
(0.0476611 0.789377 2.8431e-20)
(0.0601049 0.766499 3.07344e-20)
(0.0733328 0.738811 -5.79612e-20)
(0.087279 0.706271 -3.37181e-20)
(0.10183 0.668834 4.37557e-20)
(0.116821 0.626546 4.52739e-20)
(0.132034 0.579593 5.17877e-20)
(0.147191 0.528328 0)
(0.161958 0.473298 0)
(0.175932 0.415261 -7.66038e-20)
(0.188672 0.355211 -1.73134e-19)
(0.199739 0.294263 -9.73724e-20)
(0.208707 0.233495 0)
(0.215206 0.173674 0)
(0.218865 0.114836 1.41382e-19)
(0.219203 0.0561568 1.69404e-19)
(0.215527 -0.00049189 -1.86849e-19)
(0.207208 -0.0532097 -1.43299e-18)
(0.19525 -0.103104 -1.18799e-18)
(0.18062 -0.151653 7.72279e-19)
(0.164055 -0.19976 0)
(0.14628 -0.248096 -8.92284e-20)
(0.127966 -0.297367 -6.62603e-19)
(0.109612 -0.348793 -5.3939e-19)
(0.0914497 -0.404962 -1.29748e-19)
(0.0734359 -0.47084 -2.33626e-19)
(0.0555982 -0.553257 -1.48346e-19)
(0.0386566 -0.656326 -8.23169e-20)
(0.0238894 -0.776362 -9.10359e-20)